/*--------------------------------*- C++ -*----------------------------------*\
| =========                 |                                                 |
| \\      /  F ield         | OpenFOAM: The Open Source CFD Toolbox           |
|  \\    /   O peration     | Version:  2112                                  |
|   \\  /    A nd           | Website:  www.openfoam.com                      |
|    \\/     M anipulation  |                                                 |
\*---------------------------------------------------------------------------*/
FoamFile
{
    version     2.0;
    format      ascii;
    arch        "LSB;label=64;scalar=64";
    class       volScalarField;
    location    "0.0051";
    object      alpha.particles;
}
// * * * * * * * * * * * * * * * * * * * * * * * * * * * * * * * * * * * * * //

dimensions      [0 0 0 0 0 0 0];

internalField   nonuniform List<scalar> 
5589
(
0.000436723390329
0.000436761657949
0.000436880666322
0.000437052794478
0.000437253466588
0.000437264790637
0.000437188624103
0.000437113762459
0.000437052107814
0.000437003650965
0.000436969610993
0.000437005172525
0.000437028414277
0.000436969896539
0.000436678694438
0.000436671716061
0.000436680574237
0.000436691743924
0.000436809615343
0.00043738238166
0.000437912984668
0.000437976363317
0.000437995930381
0.000437365023643
0.000437365157991
0.0004373650619
0.00043736519627
0.000437365097299
0.000437365110389
0.000437276473719
0.000437176994887
0.000437087729807
0.000437019569441
0.000436979602948
0.000437000348645
0.000437040179582
0.000437040179615
0.000437040149696
0.000437032657376
0.00043703223567
0.000437032113361
0.00043680211943
0.000436290846535
0.000436283946125
0.000436283914322
0.000436745433192
0.000436985482325
0.000436969201751
0.000436964724977
0.000436981207789
0.00043706437238
0.000437103903841
0.000437118692279
0.000437115377003
0.00043710579155
0.000437087743646
0.000437055313532
0.000437025678592
0.000436998511071
0.000436977839631
0.000436874180196
0.000436838318725
0.000436838335289
0.000436890631084
0.000437227366116
0.000437531294007
0.000437531317567
0.000437531307569
0.000437531317667
0.000436872074297
0.00043685054325
0.000436853783702
0.000436876391044
0.000436967901989
0.000437012205225
0.000437034762727
0.000437031843518
0.000437020128636
0.000437002524001
0.000436980417297
0.000436973796649
0.000436990485998
0.000436990465344
0.000436988719501
0.000436965079799
0.000436885425665
0.0004366988574
0.000436569650953
0.000436530659059
0.000436530693038
0.000436530660336
0.000436812884969
0.000436683507013
0.000436654045369
0.000436664646353
0.000436694347482
0.000436798247297
0.000436857694598
0.000436904511196
0.000436924274086
0.000436933619787
0.000436933429623
0.000436923333444
0.000436916533436
0.000436921193982
0.000436932895449
0.000436887802939
0.000436863112898
0.000436838489774
0.000436724988943
0.000437266995322
0.000437509796863
0.000437509798639
0.000437509761044
0.000437509762929
0.000436489899714
0.000436451217158
0.000436471639917
0.000436511027562
0.000436629026768
0.000436704470904
0.000436773345571
0.000436812971425
0.000436839550809
0.000436853471395
0.000436856114648
0.000436858081127
0.00043686917272
0.000436879260084
0.000436846309424
0.000436797031964
0.000436707638195
0.000436704731075
0.000436704755677
0.00043679768603
0.000436800668453
0.000436800645622
0.000436924737832
0.00043629345788
0.000436243356915
0.000436273703742
0.000436322363125
0.000436453668336
0.000436544389037
0.000436633125025
0.000436692419047
0.000436737093855
0.000436766106416
0.000436781723768
0.000436791181164
0.000436805315747
0.000436814101187
0.000436799504047
0.000436771453652
0.000436716721494
0.000436862563327
0.000437115076244
0.000437524650446
0.000437808291307
0.000437808312974
0.000437808369644
0.000436091106012
0.000436027565135
0.000436068240144
0.000436126147323
0.00043627076115
0.000436376795723
0.000436483824513
0.000436562470004
0.000436625570928
0.00043667025198
0.000436699852632
0.000436718869096
0.000436738641417
0.000436747996918
0.000436739120368
0.00043669923605
0.000436699183941
0.00043670636125
0.000436875044125
0.000437088546284
0.000437309698107
0.00043732509613
0.00043780839119
0.00043588212112
0.000435803155312
0.00043585450567
0.000435921487509
0.000436079316271
0.000436200576834
0.000436324630062
0.000436422208803
0.000436504038943
0.000436565065396
0.000436609619354
0.000436639988662
0.000436668646721
0.000436685695397
0.000436694327614
0.000436677472967
0.000436716676612
0.000436801586663
0.000437060906185
0.000437364167131
0.000437756298054
0.000437933835529
0.000438483093278
0.000435665256962
0.000435568900453
0.000435631185897
0.000435706972654
0.000435877861199
0.000436014260351
0.000436154612158
0.000436270784112
0.000436371622526
0.00043644968026
0.000436510116818
0.000436553182469
0.000436592039443
0.000436616678565
0.00043663599874
0.0004366283569
0.000436671077696
0.000436750730691
0.000436981738843
0.000437213283727
0.000437566389192
0.000437698066577
0.00043848309988
0.000435439087686
0.000435323408831
0.000435396838314
0.000435481145243
0.000435664934752
0.000435816411163
0.000435972824789
0.000436107358029
0.000436227470318
0.000436323280893
0.000436400690448
0.000436458250979
0.000436510214156
0.000436547088033
0.000436584228984
0.000436601313966
0.000436675277734
0.000436787202943
0.000437054408802
0.000437303773552
0.000437709171112
0.000437883749557
0.000438814231953
0.000435202139149
0.000435065248099
0.000435149995213
0.000435242551864
0.000435439120229
0.0004356056517
0.00043577826628
0.000435931057534
0.000436070706046
0.000436184956669
0.000436280324578
0.000436353726466
0.000436420372295
0.000436470518227
0.0004365241835
0.000436560334105
0.00043665277317
0.000436771112937
0.000437037608253
0.000437263002602
0.000437667089958
0.000437847463856
0.000438895944555
0.000434952922323
0.000434792978879
0.000434889193219
0.000434989754543
0.000435199042311
0.000435380650611
0.000435569859107
0.000435740943293
0.000435900426181
0.000436033827329
0.000436148220052
0.000436239008503
0.000436322551341
0.000436388888284
0.000436462633105
0.000436521967431
0.000436640399742
0.000436777110083
0.000437060776477
0.00043728879472
0.00043771173645
0.000437915449774
0.00043906764891
0.000434689954072
0.00043450517492
0.000434612986629
0.000434721331761
0.000434943342896
0.000435140087026
0.000435346426621
0.000435535969652
0.000435715636618
0.000435868902748
0.000436003353001
0.000436112902761
0.000436215048191
0.000436299247031
0.000436393699702
0.000436474149682
0.000436614468342
0.00043676353923
0.000437055881938
0.000437280176644
0.00043771123198
0.000437933425917
0.000439179696979
0.000434411760588
0.000434200424601
0.000434319944551
0.000434435868164
0.000434670653897
0.000434882615695
0.000435106682694
0.000435314968462
0.000435515241129
0.000435689121195
0.000435844695241
0.000435974433669
0.000436097007709
0.000436201159672
0.000436318075269
0.000436420583904
0.000436584174469
0.000436749124917
0.000437054914845
0.000437283977505
0.000437727657488
0.000437971975105
0.000439299547194
0.00043411687092
0.000433877323776
0.000434008639013
0.0004341319416
0.000434379576556
0.000434606842439
0.000434849230698
0.000435076639359
0.000435298013717
0.000435493289812
0.000435671055632
0.000435822360725
0.000435966990995
0.00043609274968
0.000436233021046
0.000436357358927
0.000436543199118
0.000436723142751
0.000437041454464
0.000437276832701
0.000437732187408
0.000437999075579
0.000439400070727
0.000433803806536
0.000433534464736
0.000433677631179
0.000433808110427
0.000434068668389
0.000434311310745
0.000434572570074
0.000434819551837
0.000435062592607
0.000435280084767
0.000435481124826
0.000435655374214
0.000435823637867
0.000435972622392
0.000436137296639
0.000436284097466
0.000436492460187
0.000436689405511
0.000437021976052
0.000437266706653
0.00043773521031
0.000438025990964
0.000439492901858
0.000433471069881
0.000433170424523
0.000433325458013
0.000433462901805
0.000433736434954
0.000433994495308
0.000434275104267
0.000434542149448
0.000434807473209
0.000435048031109
0.000435273430455
0.000435471976356
0.000435665341233
0.000435838988038
0.000436028921865
0.00043619877654
0.000436429697214
0.000436644561702
0.000436992019805
0.000437248119854
0.000437730385794
0.00043804599613
0.00043957288121
0.000433117133843
0.000432783754483
0.000432950620972
0.000433094801725
0.000433381324368
0.000433654799304
0.000433955147478
0.000434242755258
0.00043453100702
0.000434795497902
0.000435046338562
0.000435270512366
0.000435490375463
0.000435690046845
0.000435906140395
0.000436099929033
0.000436353867532
0.000436587906326
0.000436951250884
0.000437220941021
0.000437717328941
0.000438059165595
0.000439640733716
0.000432740432667
0.000432372971475
0.000432551576815
0.000432702246551
0.000433001722524
0.000433290552221
0.000433610927856
0.000433919575113
0.000434231400245
0.000434520691134
0.000434798040752
0.000435049146174
0.000435296840465
0.000435523838873
0.000435767019358
0.000435985748315
0.000436263309349
0.000436517712938
0.000436897872055
0.000437182339951
0.000437694778252
0.000438063100255
0.000439695095982
0.00043233935499
0.000431936551889
0.000432126730541
0.000432283616508
0.000432595948732
0.000432900007384
0.000433240587414
0.000433570698781
0.000433906712797
0.000434221649559
0.000434526549173
0.000434805859961
0.000435082675884
0.000435338291915
0.000435609571417
0.000435854406022
0.000436156402787
0.000436432450783
0.000436830352735
0.000437132039221
0.000437660640927
0.000438056220062
0.000439735124794
0.000431912238849
0.000431472926612
0.00043167443124
0.000431837230964
0.000432162251754
0.000432481338928
0.000432842179472
0.000433194099152
0.000433554856823
0.000433896240616
0.000434229689859
0.000434538445409
0.00043484564615
0.000435131187223
0.0004354316774
0.000435703915082
0.000436031315749
0.000436330340337
0.000436746931034
0.00043706762723
0.000437612950438
0.000438036600306
0.000439759609211
0.000431457368599
0.000430980478159
0.00043119297103
0.000431361344521
0.000431698806544
0.000432032638637
0.000432413664825
0.00043278763019
0.000433173594756
0.000433542156437
0.000433905096178
0.000434244495325
0.000434583328929
0.000434900142965
0.000435231069862
0.00043553213969
0.000435886062205
0.000436209478167
0.000436645763687
0.000436987223767
0.000437549833247
0.000438002654101
0.000439759632065
0.000430972973892
0.000430457540324
0.000430680581978
0.000430854148135
0.000431203712752
0.000431551913857
0.000431952908463
0.000432349025155
0.000432760537836
0.000433156910321
0.000433550201871
0.000433921392619
0.000434293096895
0.000434642585074
0.000435005293536
0.000435336753183
0.000435718456006
0.000436067773353
0.000436524830906
0.000436888800202
0.000437469254938
0.000437952086935
0.000439755416985
0.000430457230572
0.000429902399443
0.000430135438684
0.000430313774848
0.000430674991496
0.000431037086727
0.000431457677986
0.000431875896129
0.00043231314577
0.0004327378341
0.000433162234148
0.000433566297681
0.000433972096537
0.000434355716175
0.00043475166893
0.000435115206321
0.000435526091103
0.000435902940748
0.000436381948745
0.000436770238426
0.000437369145469
0.000437883144041
0.000439725522343
0.000429908263228
0.000429313297229
0.000429555661554
0.000429738294475
0.000430110602238
0.000430485990714
0.000430925644439
0.000431365735768
0.00043182872835
0.000432282077096
0.000432738207503
0.000433176134853
0.000433617224421
0.000434036481119
0.000434467251666
0.000434864686712
0.000435306303926
0.000435712459833
0.000436214713833
0.000436629236937
0.000437247231873
0.000437793733382
0.000439673568482
0.000429324149769
0.000428688435537
0.00042893932223
0.000429125722605
0.000429508433056
0.000429896400222
0.000430354377883
0.000430815919835
0.000431304449929
0.000431786607673
0.000432274919337
0.000432747579169
0.000433225102265
0.000433681530527
0.000434148789321
0.000434582074914
0.0004350561341
0.000435493540797
0.000436020480382
0.000436463299904
0.000437101078747
0.000437681654403
0.000439598015223
0.000428702927785
0.000428025982809
0.000428284451008
0.000428474028991
0.000428866315064
0.000429266011395
0.000429741388246
0.000430223711764
0.0004307373333
0.000431248218857
0.00043176894946
0.000432277045989
0.000432792053618
0.000433287184441
0.000433792676159
0.000434263894721
0.000434772274548
0.000435243073449
0.000435796307431
0.000436269673205
0.000436928044189
0.000437543444847
0.000439496973201
0.000428042602524
0.000427324081998
0.00042758904604
0.000427781147603
0.000428182033996
0.000428592464421
0.000429084103909
0.000429586310124
0.000430124274441
0.000430663528541
0.000431216663688
0.00043176068438
0.000432314083052
0.00043284939636
0.000433394905135
0.00043390625709
0.000434451012958
0.000434957568706
0.000435538904541
0.000436045292199
0.000436725133601
0.000437378460067
0.000439368246109
0.000427341156797
0.000426580860278
0.000426851084695
0.000427044989114
0.000427453344913
0.000427873359572
0.000428379901081
0.000428900826467
0.0004294620931
0.000430029014732
0.000430614207872
0.000431194377144
0.000431786861919
0.000432363721559
0.000432951020014
0.000433504798865
0.00043408816343
0.000434633087709
0.000435244565609
0.000435786721173
0.000436489053574
0.000437182784201
0.000439209290408
0.000426596562317
0.000425794440028
0.000426068536537
0.000426263455221
0.000426677989359
0.000427106276463
0.00042762612568
0.000428164324516
0.000428747516756
0.000429341057415
0.000429957571335
0.000430573722005
0.000431205721724
0.000431825292036
0.000432456069307
0.000433054616643
0.00043367898686
0.000434265155102
0.000434909084465
0.000435490072748
0.000436216100141
0.00043695311197
0.000439017241417
0.000425806792497
0.000424962951105
0.00042523937797
0.000425434454831
0.000425853714944
0.000426288796493
0.000426820119423
0.000427373849958
0.000427977229563
0.000428595934084
0.000429242607179
0.000429894142332
0.000430565619146
0.000431228796753
0.000431904566766
0.000432550199238
0.000433218101334
0.000433848655629
0.000434527651947
0.000435150912931
0.000435902076142
0.000436685712957
0.000438788876095
0.000424969836546
0.000424084544238
0.000424361608358
0.000424555921874
0.000424978297035
0.000425418528122
0.000425959249846
0.000426526465574
0.00042714791311
0.000427789881191
0.000428465053501
0.000429150860105
0.000429861302813
0.000430568452541
0.000431290437863
0.000431985363154
0.000432699385046
0.000433377711611
0.000434094726587
0.000434764137519
0.000435542183615
0.000436376340298
0.000438520556254
0.000424083714477
0.000423157405171
0.000423433267244
0.000423625834349
0.000424049562025
0.000424493134361
0.000425040943555
0.000425619291108
0.000426256294196
0.000426919149458
0.000427620607878
0.000428338961512
0.000429087231489
0.000429838172492
0.000430607053688
0.000431353148174
0.000432115875576
0.000432845542059
0.00043360387265
0.000434323809011
0.000435130879826
0.000436020108809
0.00043820813678
0.000423146492647
0.000422179769207
0.000422452452294
0.000422642234144
0.000423065411625
0.000423510361784
0.000424062721917
0.00042464954708
0.000425299198927
0.0004259800692
0.000426705003414
0.000427453487752
0.000428237697781
0.000429031491488
0.000429847305736
0.000430645945481
0.000431459614906
0.000432244283944
0.000433047565254
0.000433822947477
0.000434661695385
0.000435611365256
0.000437846911393
0.000422156299644
0.000421149936009
0.000421417337828
0.000421603247414
0.000422023847769
0.000422468070432
0.000423022238223
0.000423614601275
0.000424273611685
0.000424969124232
0.000425714099025
0.000426489539746
0.000427306941099
0.000428141719051
0.00042900360992
0.000429855406359
0.000430721798506
0.000431564859204
0.000432416890511
0.000433253232078
0.000434126939168
0.00043514342082
0.00043743139062
0.000421111341857
0.000420066284172
0.000420326193496
0.000420507105114
0.000420922997691
0.000421364264089
0.000421917315732
0.000422512017253
0.000423176738277
0.000423883033985
0.000424643984504
0.000425442407574
0.000426289298704
0.000427162101165
0.000428068088736
0.000428972576959
0.000429892637993
0.000430796968778
0.000431701472502
0.000432604617575
0.000433517370586
0.000434608395919
0.000436955505608
0.000420009917881
0.000418927284703
0.000419177401933
0.000419352161959
0.000419761136714
0.000420197117484
0.000420745981742
0.000421339598209
0.000422006064271
0.000422718831955
0.000423491085191
0.000424307705877
0.000425179372399
0.000426086010565
0.000427032767236
0.000427988071686
0.000428961503772
0.000429928935984
0.000430889129661
0.000431864928757
0.000432821374844
0.00043399619828
0.000436411560193
0.000418850431238
0.000417731514391
0.000417969478135
0.000418136918578
0.000418536715932
0.000418965010547
0.000419506511451
0.000420095444467
0.000420759432492
0.00042147397202
0.000422252308047
0.000423081571795
0.000423972288647
0.000424907274114
0.00042588996454
0.000426892513743
0.000427917389925
0.000428948166433
0.000429966177125
0.000431019819983
0.00043202519715
0.000433295085526
0.000435792817955
0.000417631400599
0.000416477663369
0.000416701076386
0.000416860022137
0.000417248357229
0.00041766651638
0.00041819740864
0.000418777926969
0.000419435010765
0.000420146293669
0.000420925008992
0.000421760639676
0.000422663682127
0.000423620158491
0.000424632259702
0.000425676442892
0.000426748709079
0.000427840722656
0.000428916598255
0.000430051031358
0.000431109449153
0.000432485238369
0.000435084814892
0.000416351460659
0.000415164561611
0.000415371054364
0.000415520368476
0.000415895002488
0.000416300605821
0.000416817677665
0.000417386042339
0.000418031751481
0.000418734615778
0.000419507760771
0.000420343036283
0.000421250983273
0.000422221026311
0.000423254597405
0.000424332968873
0.000425446630674
0.000426595553667
0.000427727439492
0.000428943052028
0.000430057765136
0.000431551746347
0.000434292448981
0.000415009383401
0.000413791089968
0.000413978219335
0.000414116647097
0.000414475226303
0.000414865689897
0.000415365550321
0.000415917769507
0.000416547311718
0.000417236141225
0.000417997147168
0.000418824452376
0.000419728628258
0.000420702507946
0.000421747175184
0.000422849043803
0.000423994306366
0.000425191210454
0.000426372423854
0.000427662135983
0.000428826566304
0.000430428805377
0.000433346536472
0.000413603901506
0.000412356713618
0.000412522833414
0.00041264995417
0.000412991117197
0.000413364940118
0.000413845453223
0.000414378928749
0.00041498910127
0.000415660053462
0.000416404346612
0.000417218249777
0.000418112342998
0.000419082756164
0.00042013060699
0.000421247650982
0.000422417423437
0.000423656724967
0.000424886329493
0.000426250490362
0.000427470560472
0.000429189495608
0.000432401883288
0.000412134714072
0.000410858455139
0.000410998024753
0.000411108891605
0.000411426295221
0.00041177642223
0.000412229322526
0.000412734614502
0.000413314588252
0.000413955252199
0.000414668620299
0.000415452771141
0.000416318054838
0.000417263414995
0.000418289945706
0.000419394226135
0.000420558177269
0.000421806929298
0.000423052689092
0.000424456557128
0.000425680669587
0.000427406060049
0.000430741147182
0.000410596856574
0.000409308054838
0.000409437520934
0.000409551532165
0.000409865792198
0.00041021444538
0.000410663432538
0.000411165821273
0.000411742592628
0.000412381695881
0.000413094691749
0.000413881341003
0.000414751769054
0.000415707398157
0.000416749470595
0.000417879087236
0.00041907800904
0.000420381366315
0.000421698448692
0.000423232620258
0.000424570893427
0.000426700333028
0.000430319430038
0.000408963051046
0.00040767008019
0.000407795952769
0.000407912893399
0.000408223372138
0.000408566399049
0.000409006370632
0.00040949814336
0.00041006251827
0.000410688642868
0.000411388139956
0.000412162005319
0.000413020373895
0.000413966357392
0.000415000915013
0.000416127976009
0.000417326890144
0.000418641979714
0.00041996201023
0.000421586320455
0.000422748061975
0.000426132773641
0.000426824596528
0.000407225656493
0.000405919710447
0.000406023837622
0.000406124643327
0.000406410628752
0.000406726046668
0.00040713333708
0.000407588923181
0.000408113165636
0.000408696050458
0.000409348983242
0.000410073793348
0.000410880360914
0.000411773096941
0.000412752334783
0.000413824699348
0.000414964523737
0.000416232262635
0.000417456157005
0.000419181778614
0.000419617564844
0.00042558253463
0.00041855326965
0.000405414587824
0.000404110315108
0.000404203097967
0.000404298989159
0.000404571483365
0.000404870637986
0.000405256961409
0.000405688594018
0.000406185650405
0.000406739042602
0.000407360157729
0.000408051742735
0.000408823618687
0.000409681631468
0.000410625480169
0.000411665683761
0.000412767438691
0.00041402564699
0.000415135769909
0.000417157977289
0.000416337671739
0.000426261660685
0.000409191492256
0.000403514216599
0.000402219491238
0.000402304706795
0.00040240026076
0.000402663350197
0.000402950263786
0.000403319457033
0.000403730816307
0.000404204263086
0.000404731591908
0.000405324212255
0.000405985726749
0.000406725889893
0.000407552018227
0.000408462669182
0.000409474306949
0.000410534844559
0.000411804903497
0.000412735682495
0.000415266831542
0.00041260704402
0.000427586355113
0.000399162819218
0.00040151464628
0.000400234056193
0.000400311948297
0.000400408089625
0.000400662084923
0.000400936872215
0.00040128867602
0.000401679133256
0.000402127982911
0.000402627839606
0.000403190143618
0.00040381929069
0.000404524907239
0.000405315944424
0.000406188860544
0.000407169668319
0.000408175837109
0.000409479878771
0.000410140066158
0.000413403229364
0.000408343239563
0.000429184054452
0.000388637513187
0.000399409761909
0.000398146807983
0.000398216315323
0.000398312577226
0.000398556353831
0.000398817686713
0.000399150376239
0.000399517825646
0.000399939595099
0.000400409071792
0.000400937735256
0.000401530747522
0.000402197502705
0.000402948964009
0.00040377792185
0.000404725549214
0.000405659879007
0.000407026215687
0.000407311424059
0.000411524249803
0.000403565727997
0.00043039946996
0.000377896838739
0.000397194976979
0.000395952835131
0.000396012369013
0.000396107701505
0.000396339519727
0.000396585464795
0.000396896712303
0.000397238462585
0.000397630096953
0.000398065741486
0.000398556918699
0.000399109566664
0.000399732666728
0.000400439839234
0.000401217830727
0.0004021309117
0.000402972584442
0.000404434709331
0.000404235116329
0.000409593430645
0.000398329306419
0.000430432227207
0.000367346635106
0.000394866393885
0.000393648169766
0.000393695863419
0.000393788906193
0.000394006683455
0.000394234971349
0.000394522112531
0.000394835149677
0.000395193279434
0.000395591344047
0.000396040900803
0.000396548713648
0.000397123059855
0.000397781193762
0.000398500476529
0.000399378712076
0.000400103996355
0.000401698298164
0.000400904601386
0.00040757206251
0.000392678165328
0.00043039950655
0.000356803446953
0.000392420548445
0.00039122937243
0.000391263173348
0.000391352366274
0.000391553787284
0.000391761920739
0.000392022059108
0.000392303146021
0.000392624180622
0.000392980708992
0.000393384297133
0.00039384263327
0.000394362856459
0.000394967227746
0.000395619309619
0.000396463379503
0.000397046279614
0.00039880980078
0.000397319041181
0.00040542050037
0.000386696775682
0.000430458021838
0.000346015859358
0.000389854333087
0.000388693391727
0.000388711098449
0.000388794731705
0.000388977299175
0.000389162603648
0.000389392658622
0.000389638380506
0.000389918550168
0.000390229416127
0.000390582503747
0.000390986583707
0.000391447050181
0.000391992992738
0.000392568642375
0.000393380029702
0.000393793027715
0.000395761317988
0.000393480084613
0.000403100979331
0.000380411115175
0.000430399498397
0.00033493638143
0.000387164983249
0.000386037521636
0.000386036798653
0.000386113036952
0.000386274096596
0.000386433746519
0.000386630478365
0.000386837266727
0.000387072644361
0.000387333573084
0.000387631459326
0.000387976387012
0.000388371198968
0.000388854123311
0.00038934341484
0.00039012418711
0.000390339023049
0.000392544594893
0.00038939171691
0.000400579450747
0.000373887761746
0.000430451603927
0.000323400022808
0.000384350091109
0.000383259402255
0.00038323778708
0.000383304683253
0.00038344143838
0.000383572473827
0.000383732499879
0.000383896648905
0.000384083165314
0.000384289749604
0.00038452757629
0.000384808358438
0.000385131358976
0.000385546763428
0.000385939149261
0.000386691720442
0.00038668006826
0.000389151207611
0.00038505840252
0.000397826235368
0.000367149227869
0.000430399447512
0.000311416210198
0.000381407630909
0.000380357039581
0.000380311948358
0.000380367453656
0.00038047697597
0.000380576316541
0.000380696124995
0.000380813806296
0.000380947264581
0.000381094981526
0.000381267746072
0.000381479313578
0.00038172409911
0.000382067577527
0.000382351982189
0.000383078893929
0.000382812916723
0.000385573081543
0.000380484808138
0.000394817029721
0.00036022719888
0.000429708272672
0.000299160902301
0.00037833598894
0.000377328833354
0.000377257566927
0.000377299541083
0.000377378781279
0.000377443239934
0.000377519203864
0.000377586482394
0.00037766257377
0.000377746803702
0.000377849375132
0.000377986607248
0.000378146548075
0.00037841379823
0.000378578722065
0.0003792824677
0.000378735210941
0.000381802860613
0.000375675226128
0.000391532098048
0.000353139007145
0.000428015514338
0.000286862437009
0.000375133994792
0.000374173607932
0.000374073359402
0.000374099581929
0.000374145381296
0.000374171679607
0.00037420007232
0.000374212924049
0.000374227245944
0.0003742432942
0.000374270433085
0.000374328185276
0.000374396453519
0.00037458328872
0.000374616911826
0.000375299821622
0.000374445455748
0.000377834284475
0.000370633791866
0.000387955911087
0.000345905453604
0.000425633868984
0.000274535540565
0.000371800951213
0.000370890642455
0.000370758506515
0.000370766690171
0.00037077579371
0.00037076057896
0.000370737591499
0.000370691923572
0.000370640000313
0.000370583122333
0.000370529504346
0.000370502639539
0.000370472243042
0.000370574610819
0.000370464889383
0.000371129079564
0.000369943008777
0.000373662313968
0.000365365250763
0.000384075020762
0.000338550313349
0.000422524962351
0.00026219495129
0.000368336662439
0.00036747969995
0.000367312683838
0.000367300490074
0.000367269561573
0.000367209426165
0.000367131186533
0.000367022860028
0.000366900166304
0.000366765595835
0.000366625839144
0.000366509262475
0.000366373083511
0.000366387093985
0.000366121844247
0.000366769218149
0.000365228169267
0.000369282602107
0.000359880561563
0.000379863324477
0.000331103436404
0.000418666476459
0.000249851528993
0.000364741459644
0.000363941053785
0.000363736089535
0.000363701146123
0.000363626785053
0.000363518288077
0.000363380882776
0.000363205737825
0.000363007724595
0.000362790704829
0.000362559401271
0.000362348098343
0.000362098935045
0.000362020900217
0.0003615878746
0.000362220143719
0.000360302534313
0.000364690835184
0.000354202792888
0.000375282476709
0.000323584010581
0.000414057167922
0.000237515550237
0.000361016222592
0.000360275510217
0.000360029468251
0.000359969388949
0.000359848149017
0.000359687840099
0.000359487337497
0.000359241220498
0.000358963343312
0.000358659161104
0.000358330911108
0.000358019989315
0.00035765059863
0.000357477080585
0.000356864034829
0.000357482624604
0.000355169353378
0.000359881684595
0.000348353131766
0.000370309393166
0.000316007739306
0.000408692361393
0.000225201513045
0.000357162398151
0.000356484427838
0.000356194130874
0.000356106536639
0.000355934945936
0.000355719391058
0.000355451866239
0.000355130659149
0.000354768408404
0.000354372430379
0.000353941881526
0.000353526607865
0.000353029748196
0.000352757629469
0.000351952532047
0.000352558016584
0.000349836976786
0.000354844387255
0.000342348387796
0.000364936365297
0.000308390883108
0.00040256476898
0.000212927896172
0.000353182014611
0.000352569732468
0.000352231969645
0.000352114510744
0.00035188909258
0.000351614901644
0.000351276461245
0.00035087611096
0.000350425042311
0.000349932751924
0.000349394660404
0.000348870527174
0.000348239000553
0.000347865436
0.000346855949284
0.000347447868564
0.000344318373463
0.000349567509475
0.000336200261519
0.000359166912802
0.000300749625931
0.000395666660764
0.000200717410807
0.000349077692195
0.000348533927305
0.000348145467025
0.000347995844779
0.00034771313908
0.000347376999176
0.000346963817172
0.000346480373429
0.000345936148624
0.000345343172833
0.000344692344762
0.000344054623889
0.000343281188151
0.000342804448596
0.000341582792239
0.000342150087886
0.000338621653118
0.000344051034671
0.000329920835467
0.000353006878687
0.000293099695788
0.000387991421639
0.000188596930305
0.000344852654789
0.000344380104037
0.000343937706128
0.000343753697525
0.000343410280439
0.000343008952215
0.000342517163611
0.000341946689837
0.000341304965545
0.000340607074332
0.000339839213539
0.000339083902558
0.000338161768362
0.00033757696393
0.000336138472768
0.000336668741183
0.00033275745635
0.000338297665359
0.000323521098981
0.000346464988728
0.000285456095448
0.000379534951503
0.000176597128975
0.000340510720303
0.000340111914283
0.000339612304211
0.000339391705546
0.000338984195934
0.000338514762665
0.000337940802116
0.000337279481111
0.000336536219635
0.000335729305736
0.000334839579518
0.000333963119281
0.000332887261943
0.000332189356875
0.000330530988718
0.000331008519139
0.000326736809643
0.000332313227111
0.000317011190396
0.000339553073017
0.000277832735065
0.0003702969681
0.000164752003181
0.00033605670042
0.000335734040933
0.000335173796099
0.000334914495473
0.000334439509231
0.000333898853644
0.000333239281521
0.000332483731699
0.000331635218966
0.000330715565614
0.0003296996257
0.000328698115478
0.000327464345651
0.000326647658123
0.000324769291781
0.000325175061842
0.000320571636166
0.000326104998577
0.000310401678761
0.000332285840377
0.000270241998502
0.000360282182509
0.000153098335192
0.000331496511626
0.000331251302145
0.000330626926906
0.000330326755987
0.000329781040274
0.000329166138035
0.000328417550391
0.000327564466779
0.000326607176074
0.000325571193538
0.000324425430249
0.000323294373799
0.000321901516024
0.00032095522962
0.000318869921825