/*--------------------------------*- C++ -*----------------------------------*\
| =========                 |                                                 |
| \\      /  F ield         | OpenFOAM: The Open Source CFD Toolbox           |
|  \\    /   O peration     | Version:  2112                                  |
|   \\  /    A nd           | Website:  www.openfoam.com                      |
|    \\/     M anipulation  |                                                 |
\*---------------------------------------------------------------------------*/
FoamFile
{
    version     2.0;
    format      ascii;
    arch        "LSB;label=64;scalar=64";
    class       volScalarField;
    location    "0.0051";
    object      alpha.gas;
}
// * * * * * * * * * * * * * * * * * * * * * * * * * * * * * * * * * * * * * //

dimensions      [0 0 0 0 0 0 0];

internalField   nonuniform List<scalar> 
5589
(
0.99956327661
0.999563238342
0.999563119334
0.999562947206
0.999562746533
0.999562735209
0.999562811376
0.999562886238
0.999562947892
0.999562996349
0.999563030389
0.999562994827
0.999562971586
0.999563030103
0.999563321306
0.999563328284
0.999563319426
0.999563308256
0.999563190385
0.999562617618
0.999562087015
0.999562023637
0.99956200407
0.999562634976
0.999562634842
0.999562634938
0.999562634804
0.999562634903
0.99956263489
0.999562723526
0.999562823005
0.99956291227
0.999562980431
0.999563020397
0.999562999651
0.99956295982
0.99956295982
0.99956295985
0.999562967343
0.999562967764
0.999562967887
0.999563197881
0.999563709153
0.999563716054
0.999563716086
0.999563254567
0.999563014518
0.999563030798
0.999563035275
0.999563018792
0.999562935628
0.999562896096
0.999562881308
0.999562884623
0.999562894208
0.999562912256
0.999562944686
0.999562974321
0.999563001489
0.99956302216
0.99956312582
0.999563161681
0.999563161665
0.999563109369
0.999562772634
0.999562468706
0.999562468682
0.999562468692
0.999562468682
0.999563127926
0.999563149457
0.999563146216
0.999563123609
0.999563032098
0.999562987795
0.999562965237
0.999562968156
0.999562979871
0.999562997476
0.999563019583
0.999563026203
0.999563009514
0.999563009535
0.99956301128
0.99956303492
0.999563114574
0.999563301143
0.999563430349
0.999563469341
0.999563469307
0.99956346934
0.999563187115
0.999563316493
0.999563345955
0.999563335354
0.999563305653
0.999563201753
0.999563142305
0.999563095489
0.999563075726
0.99956306638
0.99956306657
0.999563076667
0.999563083467
0.999563078806
0.999563067105
0.999563112197
0.999563136887
0.99956316151
0.999563275011
0.999562733005
0.999562490203
0.999562490201
0.999562490239
0.999562490237
0.9995635101
0.999563548783
0.99956352836
0.999563488972
0.999563370973
0.999563295529
0.999563226654
0.999563187029
0.999563160449
0.999563146529
0.999563143885
0.999563141919
0.999563130827
0.99956312074
0.999563153691
0.999563202968
0.999563292362
0.999563295269
0.999563295244
0.999563202314
0.999563199332
0.999563199354
0.999563075262
0.999563706542
0.999563756643
0.999563726296
0.999563677637
0.999563546332
0.999563455611
0.999563366875
0.999563307581
0.999563262906
0.999563233894
0.999563218276
0.999563208819
0.999563194684
0.999563185899
0.999563200496
0.999563228546
0.999563283279
0.999563137437
0.999562884924
0.99956247535
0.999562191709
0.999562191687
0.99956219163
0.999563908894
0.999563972435
0.99956393176
0.999563873853
0.999563729239
0.999563623204
0.999563516175
0.99956343753
0.999563374429
0.999563329748
0.999563300147
0.999563281131
0.999563261359
0.999563252003
0.99956326088
0.999563300764
0.999563300816
0.999563293639
0.999563124956
0.999562911454
0.999562690302
0.999562674904
0.999562191609
0.999564117879
0.999564196845
0.999564145494
0.999564078512
0.999563920684
0.999563799423
0.99956367537
0.999563577791
0.999563495961
0.999563434935
0.999563390381
0.999563360011
0.999563331353
0.999563314305
0.999563305672
0.999563322527
0.999563283323
0.999563198413
0.999562939094
0.999562635833
0.999562243702
0.999562066164
0.999561516907
0.999564334743
0.9995644311
0.999564368814
0.999564293027
0.999564122139
0.99956398574
0.999563845388
0.999563729216
0.999563628377
0.99956355032
0.999563489883
0.999563446818
0.999563407961
0.999563383321
0.999563364001
0.999563371643
0.999563328922
0.999563249269
0.999563018261
0.999562786716
0.999562433611
0.999562301933
0.9995615169
0.999564560912
0.999564676591
0.999564603162
0.999564518855
0.999564335065
0.999564183589
0.999564027175
0.999563892642
0.99956377253
0.999563676719
0.99956359931
0.999563541749
0.999563489786
0.999563452912
0.999563415771
0.999563398686
0.999563324722
0.999563212797
0.999562945591
0.999562696226
0.999562290829
0.99956211625
0.999561185768
0.999564797861
0.999564934752
0.999564850005
0.999564757448
0.99956456088
0.999564394348
0.999564221734
0.999564068942
0.999563929294
0.999563815043
0.999563719675
0.999563646274
0.999563579628
0.999563529482
0.999563475817
0.999563439666
0.999563347227
0.999563228887
0.999562962392
0.999562736997
0.99956233291
0.999562152536
0.999561104055
0.999565047078
0.999565207021
0.999565110807
0.999565010245
0.999564800958
0.999564619349
0.999564430141
0.999564259057
0.999564099574
0.999563966173
0.99956385178
0.999563760991
0.999563677449
0.999563611112
0.999563537367
0.999563478033
0.9995633596
0.99956322289
0.999562939224
0.999562711205
0.999562288264
0.99956208455
0.999560932351
0.999565310046
0.999565494825
0.999565387013
0.999565278668
0.999565056657
0.999564859913
0.999564653573
0.99956446403
0.999564284363
0.999564131097
0.999563996647
0.999563887097
0.999563784952
0.999563700753
0.9995636063
0.99956352585
0.999563385532
0.999563236461
0.999562944118
0.999562719823
0.999562288768
0.999562066574
0.999560820303
0.999565588239
0.999565799575
0.999565680055
0.999565564132
0.999565329346
0.999565117384
0.999564893317
0.999564685032
0.999564484759
0.999564310879
0.999564155305
0.999564025566
0.999563902992
0.99956379884
0.999563681925
0.999563579416
0.999563415826
0.999563250875
0.999562945085
0.999562716022
0.999562272343
0.999562028025
0.999560700453
0.999565883129
0.999566122676
0.999565991361
0.999565868058
0.999565620423
0.999565393158
0.999565150769
0.999564923361
0.999564701986
0.99956450671
0.999564328944
0.999564177639
0.999564033009
0.99956390725
0.999563766979
0.999563642641
0.999563456801
0.999563276857
0.999562958546
0.999562723167
0.999562267813
0.999562000924
0.999560599929
0.999566196193
0.999566465535
0.999566322369
0.99956619189
0.999565931332
0.999565688689
0.99956542743
0.999565180448
0.999564937407
0.999564719915
0.999564518875
0.999564344626
0.999564176362
0.999564027378
0.999563862703
0.999563715903
0.99956350754
0.999563310594
0.999562978024
0.999562733293
0.99956226479
0.999561974009
0.999560507098
0.99956652893
0.999566829575
0.999566674542
0.999566537098
0.999566263565
0.999566005505
0.999565724896
0.999565457851
0.999565192527
0.999564951969
0.99956472657
0.999564528024
0.999564334659
0.999564161012
0.999563971078
0.999563801223
0.999563570303
0.999563355438
0.99956300798
0.99956275188
0.999562269614
0.999561954004
0.999560427119
0.999566882866
0.999567216246
0.999567049379
0.999566905198
0.999566618676
0.999566345201
0.999566044853
0.999565757245
0.999565468993
0.999565204502
0.999564953661
0.999564729488
0.999564509625
0.999564309953
0.99956409386
0.999563900071
0.999563646132
0.999563412094
0.999563048749
0.999562779059
0.999562282671
0.999561940834
0.999560359266
0.999567259567
0.999567627029
0.999567448423
0.999567297753
0.999566998277
0.999566709448
0.999566389072
0.999566080425
0.9995657686
0.999565479309
0.999565201959
0.999564950854
0.99956470316
0.999564476161
0.999564232981
0.999564014252
0.999563736691
0.999563482287
0.999563102128
0.99956281766
0.999562305222
0.9995619369
0.999560304904
0.999567660645
0.999568063448
0.999567873269
0.999567716383
0.999567404051
0.999567099993
0.999566759413
0.999566429301
0.999566093287
0.99956577835
0.999565473451
0.99956519414
0.999564917324
0.999564661708
0.999564390429
0.999564145594
0.999563843597
0.999563567549
0.999563169647
0.999562867961
0.999562339359
0.99956194378
0.999560264875
0.999568087761
0.999568527073
0.999568325569
0.999568162769
0.999567837748
0.999567518661
0.999567157821
0.999566805901
0.999566445143
0.999566103759
0.99956577031
0.999565461555
0.999565154354
0.999564868813
0.999564568323
0.999564296085
0.999563968684
0.99956366966
0.999563253069
0.999562932373
0.99956238705
0.9995619634
0.999560240391
0.999568542631
0.999569019522
0.999568807029
0.999568638655
0.999568301193
0.999567967361
0.999567586335
0.99956721237
0.999566826405
0.999566457844
0.999566094904
0.999565755505
0.999565416671
0.999565099857
0.99956476893
0.99956446786
0.999564113938
0.999563790522
0.999563354236
0.999563012776
0.999562450167
0.999561997346
0.999560240368
0.999569027026
0.99956954246
0.999569319418
0.999569145852
0.999568796287
0.999568448086
0.999568047092
0.999567650975
0.999567239462
0.99956684309
0.999566449798
0.999566078607
0.999565706903
0.999565357415
0.999564994706
0.999564663247
0.999564281544
0.999563932227
0.999563475169
0.9995631112
0.999562530745
0.999562047913
0.999560244583
0.999569542769
0.999570097601
0.999569864561
0.999569686225
0.999569325009
0.999568962913
0.999568542322
0.999568124104
0.999567686854
0.999567262166
0.999566837766
0.999566433702
0.999566027903
0.999565644284
0.999565248331
0.999564884794
0.999564473909
0.999564097059
0.999563618051
0.999563229762
0.999562630855
0.999562116856
0.999560274478
0.999570091737
0.999570686703
0.999570444338
0.999570261706
0.999569889398
0.999569514009
0.999569074356
0.999568634264
0.999568171272
0.999567717923
0.999567261792
0.999566823865
0.999566382776
0.999565963519
0.999565532748
0.999565135313
0.999564693696
0.99956428754
0.999563785286
0.999563370763
0.999562752768
0.999562206267
0.999560326432
0.99957067585
0.999571311564
0.999571060678
0.999570874277
0.999570491567
0.9995701036
0.999569645622
0.99956918408
0.99956869555
0.999568213392
0.999567725081
0.999567252421
0.999566774898
0.999566318469
0.999565851211
0.999565417925
0.999564943866
0.999564506459
0.99956397952
0.9995635367
0.999562898921
0.999562318346
0.999560401985
0.999571297072
0.999571974017
0.999571715549
0.999571525971
0.999571133685
0.999570733989
0.999570258612
0.999569776288
0.999569262667
0.999568751781
0.999568231051
0.999567722954
0.999567207946
0.999566712816
0.999566207324
0.999565736105
0.999565227725
0.999564756927
0.999564203693
0.999563730327
0.999563071956
0.999562456555
0.999560503027
0.999571957397
0.999572675918
0.999572410954
0.999572218852
0.999571817966
0.999571407536
0.999570915896
0.99957041369
0.999569875726
0.999569336471
0.999568783336
0.999568239316
0.999567685917
0.999567150604
0.999566605095
0.999566093743
0.999565548987
0.999565042431
0.999564461095
0.999563954708
0.999563274866
0.99956262154
0.999560631754
0.999572658843
0.99957341914
0.999573148915
0.999572955011
0.999572546655
0.99957212664
0.999571620099
0.999571099174
0.999570537907
0.999569970985
0.999569385792
0.999568805623
0.999568213138
0.999567636278
0.99956704898
0.999566495201
0.999565911837
0.999565366912
0.999564755434
0.999564213279
0.999563510946
0.999562817216
0.99956079071
0.999573403438
0.99957420556
0.999573931463
0.999573736545
0.999573322011
0.999572893724
0.999572373874
0.999571835675
0.999571252483
0.999570658943
0.999570042429
0.999569426278
0.999568794278
0.999568174708
0.999567543931
0.999566945383
0.999566321013
0.999565734845
0.999565090916
0.999564509927
0.9995637839
0.999563046888
0.999560982759
0.999574193208
0.999575037049
0.999574760622
0.999574565545
0.999574146285
0.999573711204
0.999573179881
0.99957262615
0.99957202277
0.999571404066
0.999570757393
0.999570105858
0.999569434381
0.999568771203
0.999568095433
0.999567449801
0.999566781899
0.999566151344
0.999565472348
0.999564849087
0.999564097924
0.999563314287
0.999561211124
0.999575030163
0.999575915456
0.999575638392
0.999575444078
0.999575021703
0.999574581472
0.99957404075
0.999573473534
0.999572852087
0.999572210119
0.999571534946
0.99957084914
0.999570138697
0.999569431547
0.999568709562
0.999568014637
0.999567300615
0.999566622288
0.999565905273
0.999565235862
0.999564457816
0.99956362366
0.999561479444
0.999575916286
0.999576842595
0.999576566733
0.999576374166
0.999575950438
0.999575506866
0.999574959056
0.999574380709
0.999573743706
0.999573080851
0.999572379392
0.999571661038
0.999570912769
0.999570161828
0.999569392946
0.999568646852
0.999567884124
0.999567154458
0.999566396127
0.999565676191
0.99956486912
0.999563979891
0.999561791863
0.999576853507
0.999577820231
0.999577547548
0.999577357766
0.999576934588
0.999576489638
0.999575937278
0.999575350453
0.999574700801
0.999574019931
0.999573294997
0.999572546512
0.999571762302
0.999570968509
0.999570152694
0.999569354055
0.999568540385
0.999567755716
0.999566952435
0.999566177053
0.999565338305
0.999564388635
0.999562153089
0.9995778437
0.999578850064
0.999578582662
0.999578396753
0.999577976152
0.99957753193
0.999576977762
0.999576385399
0.999575726388
0.999575030876
0.999574285901
0.99957351046
0.999572693059
0.999571858281
0.99957099639
0.999570144594
0.999569278201
0.999568435141
0.999567583109
0.999566746768
0.999565873061
0.999564856579
0.999562568609
0.999578888658
0.999579933716
0.999579673807
0.999579492895
0.999579077002
0.999578635736
0.999578082684
0.999577487983
0.999576823262
0.999576116966
0.999575356015
0.999574557592
0.999573710701
0.999572837899
0.999571931911
0.999571027423
0.999570107362
0.999569203031
0.999568298527
0.999567395382
0.999566482629
0.999565391604
0.999563044494
0.999579990082
0.999581072715
0.999580822598
0.999580647838
0.999580238863
0.999579802883
0.999579254018
0.999578660402
0.999577993936
0.999577281168
0.999576508915
0.999575692294
0.999574820628
0.999573913989
0.999572967233
0.999572011928
0.999571038496
0.999570071064
0.99956911087
0.999568135071
0.999567178625
0.999566003802
0.99956358844
0.999581149569
0.999582268486
0.999582030522
0.999581863081
0.999581463284
0.999581034989
0.999580493489
0.999579904556
0.999579240568
0.999578526028
0.999577747692
0.999576918428
0.999576027711
0.999575092726
0.999574110035
0.999573107486
0.99957208261
0.999571051834
0.999570033823
0.99956898018
0.999567974803
0.999566704914
0.999564207182
0.999582368599
0.999583522337
0.999583298924
0.999583139978
0.999582751643
0.999582333484
0.999581802591
0.999581222073
0.999580564989
0.999579853706
0.999579074991
0.99957823936
0.999577336318
0.999576379842
0.99957536774
0.999574323557
0.999573251291
0.999572159277
0.999571083402
0.999569948969
0.999568890551
0.999567514762
0.999564915185
0.999583648539
0.999584835438
0.999584628946
0.999584479632
0.999584104998
0.999583699394
0.999583182322
0.999582613958
0.999581968249
0.999581265384
0.999580492239
0.999579656964
0.999578749017
0.999577778974
0.999576745403
0.999575667031
0.999574553369
0.999573404446
0.999572272561
0.999571056948
0.999569942235
0.999568448254
0.999565707551
0.999584990617
0.99958620891
0.999586021781
0.999585883353
0.999585524774
0.99958513431
0.99958463445
0.99958408223
0.999583452688
0.999582763859
0.999582002853
0.999581175548
0.999580271372
0.999579297492
0.999578252825
0.999577150956
0.999576005694
0.99957480879
0.999573627576
0.999572337864
0.999571173434
0.999569571195
0.999566653464
0.999586396098
0.999587643286
0.999587477167
0.999587350046
0.999587008883
0.99958663506
0.999586154547
0.999585621071
0.999585010899
0.999584339947
0.999583595653
0.99958278175
0.999581887657
0.999580917244
0.999579869393
0.999578752349
0.999577582577
0.999576343275
0.999575113671
0.99957374951
0.99957252944
0.999570810504
0.999567598117
0.999587865286
0.999589141545
0.999589001975
0.999588891108
0.999588573705
0.999588223578
0.999587770677
0.999587265385
0.999586685412
0.999586044748
0.99958533138
0.999584547229
0.999583681945
0.999582736585
0.999581710054
0.999580605774
0.999579441823
0.999578193071
0.999576947311
0.999575543443
0.99957431933
0.99957259394
0.999569258853
0.999589403143
0.999590691945
0.999590562479
0.999590448468
0.999590134208
0.999589785555
0.999589336567
0.999588834179
0.999588257407
0.999587618304
0.999586905308
0.999586118659
0.999585248231
0.999584292602
0.999583250529
0.999582120913
0.999580921991
0.999579618634
0.999578301551
0.99957676738
0.999575429107
0.999573299667
0.99956968057
0.999591036949
0.99959232992
0.999592204047
0.999592087107
0.999591776628
0.999591433601
0.999590993629
0.999590501857
0.999589937482
0.999589311357
0.99958861186
0.999587837995
0.999586979626
0.999586033643
0.999584999085
0.999583872024
0.99958267311
0.99958135802
0.99958003799
0.99957841368
0.999577251938
0.999573867226
0.999573175403
0.999592774344
0.99959408029
0.999593976162
0.999593875357
0.999593589371
0.999593273953
0.999592866663
0.999592411077
0.999591886834
0.99959130395
0.999590651017
0.999589926207
0.999589119639
0.999588226903
0.999587247665
0.999586175301
0.999585035476
0.999583767737
0.999582543843
0.999580818221
0.999580382435
0.999574417465
0.99958144673
0.999594585412
0.999595889685
0.999595796902
0.999595701011
0.999595428517
0.999595129362
0.999594743039
0.999594311406
0.99959381435
0.999593260957
0.999592639842
0.999591948257
0.999591176381
0.999590318369
0.99958937452
0.999588334316
0.999587232561
0.999585974353
0.99958486423
0.999582842023
0.999583662328
0.999573738339
0.999590808508
0.999596485783
0.999597780509
0.999597695293
0.999597599739
0.99959733665
0.999597049736
0.999596680543
0.999596269184
0.999595795737
0.999595268408
0.999594675788
0.999594014273
0.99959327411
0.999592447982
0.999591537331
0.999590525693
0.999589465155
0.999588195097
0.999587264318
0.999584733168
0.999587392956
0.999572413645
0.999600837181
0.999598485354
0.999599765944
0.999599688052
0.99959959191
0.999599337915
0.999599063128
0.999598711324
0.999598320867
0.999597872017
0.99959737216
0.999596809856
0.999596180709
0.999595475093
0.999594684056
0.999593811139
0.999592830332
0.999591824163
0.999590520121
0.999589859934
0.999586596771
0.99959165676
0.999570815946
0.999611362487
0.999600590238
0.999601853192
0.999601783685
0.999601687423
0.999601443646
0.999601182313
0.999600849624
0.999600482174
0.999600060405
0.999599590928
0.999599062265
0.999598469252
0.999597802497
0.999597051036
0.999596222078
0.999595274451
0.999594340121
0.999592973784
0.999592688576
0.99958847575
0.999596434272
0.99956960053
0.999622103161
0.999602805023
0.999604047165
0.999603987631
0.999603892298
0.99960366048
0.999603414535
0.999603103288
0.999602761537
0.999602369903
0.999601934259
0.999601443081
0.999600890433
0.999600267333
0.999599560161
0.999598782169
0.999597869088
0.999597027416
0.999595565291
0.999595764884
0.999590406569
0.999601670694
0.999569567773
0.999632653365
0.999605133606
0.99960635183
0.999606304137
0.999606211094
0.999605993317
0.999605765029
0.999605477887
0.99960516485
0.999604806721
0.999604408656
0.999603959099
0.999603451286
0.99960287694
0.999602218806
0.999601499523
0.999600621288
0.999599896004
0.999598301702
0.999599095399
0.999592427937
0.999607321835
0.999569600493
0.999643196553
0.999607579452
0.999608770628
0.999608736827
0.999608647634
0.999608446213
0.999608238079
0.999607977941
0.999607696854
0.999607375819
0.999607019291
0.999606615703
0.999606157367
0.999605637144
0.999605032772
0.99960438069
0.99960353662
0.99960295372
0.999601190199
0.999602680959
0.9995945795
0.999613303224
0.999569541978
0.999653984141
0.999610145667
0.999611306608
0.999611288902
0.999611205268
0.999611022701
0.999610837396
0.999610607341
0.999610361619
0.99961008145
0.999609770584
0.999609417496
0.999609013416
0.99960855295
0.999608007007
0.999607431358
0.99960661997
0.999606206972
0.999604238682
0.999606519915
0.999596899021
0.999619588885
0.999569600502
0.999665063619
0.999612835017
0.999613962478
0.999613963201
0.999613886963
0.999613725903
0.999613566253
0.999613369522
0.999613162733
0.999612927356
0.999612666427
0.999612368541
0.999612023613
0.999611628801
0.999611145877
0.999610656585
0.999609875813
0.999609660977
0.999607455405
0.999610608283
0.999599420549
0.999626112238
0.999569548396
0.999676599977
0.999615649909
0.999616740598
0.999616762213
0.999616695317
0.999616558562
0.999616427526
0.9996162675
0.999616103351
0.999615916835
0.99961571025
0.999615472424
0.999615191642
0.999614868641
0.999614453237
0.999614060851
0.99961330828
0.999613319932
0.999610848792
0.999614941597
0.999602173765
0.999632850772
0.999569600552
0.99968858379
0.999618592369
0.99961964296
0.999619688052
0.999619632546
0.999619523024
0.999619423683
0.999619303875
0.999619186194
0.999619052735
0.999618905018
0.999618732254
0.999618520686
0.999618275901
0.999617932422
0.999617648018
0.999616921106
0.999617187083
0.999614426918
0.999619515192
0.99960518297
0.999639772801
0.999570291727
0.999700839098
0.999621664011
0.999622671167
0.999622742433
0.999622700459
0.999622621219
0.99962255676
0.999622480796
0.999622413518
0.999622337426
0.999622253196
0.999622150625
0.999622013393
0.999621853452
0.999621586202
0.999621421278
0.999620717532
0.999621264789
0.999618197139
0.999624324774
0.999608467902
0.999646860993
0.999571984486
0.999713137563
0.999624866005
0.999625826392
0.999625926641
0.999625900418
0.999625854619
0.99962582832
0.999625799928
0.999625787076
0.999625772754
0.999625756706
0.999625729567
0.999625671815
0.999625603546
0.999625416711
0.999625383088
0.999624700178
0.999625554544
0.999622165716
0.999629366208
0.999612044089
0.999654094546
0.999574366131
0.999725464459
0.999628199049
0.999629109358
0.999629241493
0.99962923331
0.999629224206
0.999629239421
0.999629262409
0.999629308076
0.99962936
0.999629416878
0.999629470496
0.99962949736
0.999629527757
0.999629425389
0.999629535111
0.99962887092
0.999630056991
0.999626337686
0.999634634749
0.999615924979
0.999661449687
0.999577475038
0.999737805049
0.999631663338
0.9996325203
0.999632687316
0.99963269951
0.999632730438
0.999632790574
0.999632868813
0.99963297714
0.999633099834
0.999633234404
0.999633374161
0.999633490738
0.999633626916
0.999633612906
0.999633878156
0.999633230782
0.999634771831
0.999630717398
0.999640119438
0.999620136676
0.999668896564
0.999581333524
0.999750148471
0.99963525854
0.999636058946
0.99963626391
0.999636298854
0.999636373215
0.999636481712
0.999636619117
0.999636794262
0.999636992275
0.999637209295
0.999637440599
0.999637651902
0.999637901065
0.9996379791
0.999638412125
0.999637779856
0.999639697466
0.999635309165
0.999645797207
0.999624717523
0.999676415989
0.999585942832
0.99976248445
0.999638983777
0.99963972449
0.999639970532
0.999640030611
0.999640151851
0.99964031216
0.999640512663
0.99964075878
0.999641036657
0.999641340839
0.999641669089
0.999641980011
0.999642349401
0.999642522919
0.999643135965
0.999642517375
0.999644830647
0.999640118315
0.999651646868
0.999629690607
0.999683992261
0.999591307639
0.999774798487
0.999642837602
0.999643515572
0.999643805869
0.999643893463
0.999644065054
0.999644280609
0.999644548134
0.999644869341
0.999645231592
0.99964562757
0.999646058118
0.999646473392
0.999646970252
0.999647242371
0.999648047468
0.999647441983
0.999650163023
0.999645155613
0.999657651612
0.999635063635
0.999691609117
0.999597435231
0.999787072104
0.999646817985
0.999647430268
0.99964776803
0.999647885489
0.999648110907
0.999648385098
0.999648723539
0.999649123889
0.999649574958
0.999650067248
0.99965060534
0.999651129473
0.999651760999
0.999652134564
0.999653144051
0.999652552131
0.999655681627
0.999650432491
0.999663799738
0.999640833087
0.999699250374
0.999604333339
0.999799282589
0.999650922308
0.999651466073
0.999651854533
0.999652004155
0.999652286861
0.999652623001
0.999653036183
0.999653519627
0.999654063851
0.999654656827
0.999655307655
0.999655945376
0.999656718812
0.999657195551
0.999658417208
0.999657849912
0.999661378347
0.999655948965
0.999670079165
0.999646993121
0.999706900304
0.999612008578
0.99981140307
0.999655147345
0.999655619896
0.999656062294
0.999656246302
0.99965658972
0.999656991048
0.999657482836
0.99965805331
0.999658695034
0.999659392926
0.999660160786
0.999660916097
0.999661838232
0.999662423036
0.999663861527
0.999663331259
0.999667242544
0.999661702335
0.999676478901
0.999653535011
0.999714543905
0.999620465048
0.999823402871
0.99965948928
0.999659888086
0.999660387696
0.999660608294
0.999661015804
0.999661485237
0.999662059198
0.999662720519
0.99966346378
0.999664270694
0.99966516042
0.999666036881
0.999667112738
0.999667810643
0.999669469011
0.999668991481
0.99967326319
0.999667686773
0.99968298881
0.999660446927
0.999722167265
0.999629703032
0.999835247997
0.9996639433
0.999664265959
0.999664826204
0.999665085505
0.999665560491
0.999666101146
0.999666760718
0.999667516268
0.999668364781
0.999669284434
0.999670300374
0.999671301885
0.999672535654
0.999673352342
0.999675230708
0.999674824938
0.999679428364
0.999673895001
0.999689598321
0.99966771416
0.999729758001
0.999639717817
0.999846901665
0.999668503488
0.999668748698
0.999669373073
0.999669673244
0.99967021896
0.999670833862
0.99967158245
0.999672435533
0.999673392824
0.999674428806
0.99967557457
0.999676705626
0.999678098484
0.99967904477
0.999681130078
0.999680838002
0.999685702638
0.99968034787
0.999696272733
0.999675326599
0.999737303683
0.999650499003
0.999858324803
0.999673164196
0.999673331792
0.999674022995
0.999674366619
0.999674985878
0.999675677888
0.999676518526
0.999677472128
0.999678541275
0.999679696845
0.999680975216
0.999682240491
0.99968379169
0.99968488053
0.999687154296
0.999687026282
0.999692063863
0.999687067308
0.999702928136
0.999683360533
0.999744744578
0.999662031109
0.999869476744
0.999677919473
0.999678009789
0.999678770076
0.999679159596
0.999679854863
0.999680626589
0.999681561974
0.999682618778
0.999683802473
0.999685080554
0.999686493709
0.999687897641
0.99968960548
0.999690849626
0.999693292787
0.999693376151
0.999698505593
0.999694027247
0.999709577364
0.999691853871
0.999751970136
0.999674322453
0.999880316793
0.999682763174
0.999682776874
0.999683608003
0.999684045691
0.999684819064
0.999685672838
0.999686705305
0.999687867661
0.999689168178
0.999690571313
0.999692120831
0.999693667449
0.999695529566
0.999696940761
0.999699535144
0.999699871351
0.999705023295
0.999701196579
0.999716238054
0.99970074384
0.999758954598
0.999687384056
0.999890805489
0.999687688892
0.99968762686
0.999688530067
0.999689017996
0.999689871182
0.999690809034
0.999691940524
0.999693210414
0.999694629574
0.999696159861
0.99969784675
0.99969953948
0.999701553119
0.999703141411
0.999705870892
0.999706493513
0.999711613385
0.999708540902
0.999722930474
0.999709959031
0.999765748358
0.999701144927
0.999900905177
0.999692689926
0.999692553197
0.999693529178
0.999694069189
0.999695003483
0.999696027113
0.999697259146
0.999698638142
0.999700177285
0.999701836325
0.999703661037
0.999705502535
0.999707664764
0.999709437971
0.999712289242
0.999713222755
0.999718272254
0.999716024229
0.999729675185
0.999719423411
0.999772408734
0.99971552048
0.99991058163
0.999697759293
0.999697549
0.999698597901
0.999699191578
0.999700207843
0.999701318591
0.999702652244
0.999704141481
0.999705801439
0.99970759028
0.999709552722
0.999711544737
0.999713852592
0.999715815965
0.999718778879
0.999720038303
0.999724995411
0.999723610604
0.999736490821
0.999729060111
0.99977899705
0.999730406164
0.999919799802
0.999702889752
0.999702607089
0.999703728511
0.999704377149
0.999705475808
0.999706674631
0.999708110513
0.999709710652
0.999711491731
0.999713410816
0.999715510358
0.999717653625
0.999720104161
0.999722260239
0.99972532777
0.999726919027
0.999731776775
0.999731265446
0.999743392168
0.999738795393
0.999785587389
0.99974582662
0.999928414274
0.999708073857
0.99970772004
0.999708913041
0.999709617626
0.999710798651
0.999712086096
0.999713624335
0.99971533554
0.999717237495
0.999719286621
0.999721522079
0.999723816252
0.999726406516
0.99972875514
0.999731923014
0.999733843858
0.999738608143
0.999738956499
0.999750388629
0.999748561693
0.999792252497
0.99976164616
0.999936416937
0.999713303997
0.99971288024
0.999714143349
0.999714904533
0.999716167442
0.999717543626
0.99971918385
0.999721005758
0.999723027773
0.999725206051
0.999727575662
0.999730019271
0.9997327462
0.999735284652
0.999738550738
0.999740792041
0.999745478842
0.999746654321
0.999757483117
0.999758299934
0.999799060108
0.999777715313
0.999943807728
0.999718572464
0.99971807995
0.999719411182
0.999720229262
0.999721573117
0.999723037705
0.999724779031
0.999726710726
0.999728851392
0.999731157211
0.999733658588
0.999736249019
0.999739109275
0.999741832484
0.999745196022
0.99974774321
0.999752375526
0.999754332287
0.999764671373
0.999767960897
0.999806068756
0.999793876573
0.999950592085
0.999723871518
0.999723311375
0.99972470825
0.999725583151
0.999727006557
0.999728558745
0.999730399764
0.999732439753
0.999734697041
0.999737128031
0.999739758108
0.999742491587
0.999745481346
0.99974838211
0.99975184287
0.999754677306
0.999759282074
0.999761966133
0.999771941677
0.999777505522
0.999813323428
0.999809968047
0.999956780249
0.99972919344
0.999728566721
0.999730026288
0.99973095754
0.999732458648
0.999734097143
0.999736035909
0.9997381821
0.999740553329
0.99974310633
0.999745861284
0.999748732857
0.999751847566
0.99975491674
0.999758474157
0.999761574315
0.999766179519
0.999769533095
0.999779274887
0.999786904053
0.999820851277
0.999825827057
0.999962386382
0.999734530922
0.999733838588
0.999735357441
0.999736344162
0.999737920664
0.999739643666
0.999741677677
0.999743927348
0.999746409154
0.999749080169
0.999751955333
0.999754958836
0.999758192941
0.999761419558
0.999765071889
0.999768414197
0.999773046269
0.999777011018
0.999786644911
0.999796134217
0.99982865788
0.999841293746
0.999967427256
0.99973987537
0.999739118332
0.999740692716
0.999741733687
0.999743382923
0.999745188211
0.999747314507
0.999749664392
0.999752252796
0.999755037058
0.999758026928
0.999761155025
0.999764501791
0.999767873164
0.999771616785
0.999775176157
0.999779857831
0.999784376921
0.999794019134
0.999805178328
0.999836725017
0.999856214407
0.999971919514