/*--------------------------------*- C++ -*----------------------------------*\
| =========                 |                                                 |
| \\      /  F ield         | OpenFOAM: The Open Source CFD Toolbox           |
|  \\    /   O peration     | Version:  2112                                  |
|   \\  /    A nd           | Website:  www.openfoam.com                      |
|    \\/     M anipulation  |                                                 |
\*---------------------------------------------------------------------------*/
FoamFile
{
    version     2.0;
    format      ascii;
    arch        "LSB;label=64;scalar=64";
    class       volScalarField;
    location    "0.0051";
    object      Kh;
}
// * * * * * * * * * * * * * * * * * * * * * * * * * * * * * * * * * * * * * //

dimensions      [1 -1 -3 -1 0 0 0];

internalField   nonuniform List<scalar> 
5589
(
457815577279
457805616108
457814406532
457840895703
457864353388
457662290418
457347626586
457017864786
456689597105
456365695649
456048194912
455792207890
455498191904
455000806884
454946143503
455085774895
455147771633
455153372770
455234235426
455750943489
456206057987
456132279350
455996043583
456119931085
456129608670
456152735797
456173322296
456187507205
456190478395
456086161567
455954017115
455816472926
455686715219
455574498023
455517002461
455474899590
455392087041
455315476722
455242489640
455184077602
455142972989
454867411889
454337619386
454330051658
454337797396
454764638059
456019431028
455991154124
455956715358
455931079511
455963980314
455941926508
455888394127
455814693960
455736598316
455655296048
455567104642
455491757576
455428378214
455379403740
455248643577
455191644448
455174428640
455213349877
455551430182
455841422334
455800921987
455727933837
455692031615
455784315989
455755206852
455739849556
455736412278
455797820876
455804182307
455783621357
455733867169
455673117227
455605242941
455532016884
455474888125
455442225378
455393336100
455344597455
455277869138
455157861457
454936292018
454778877906
454726494335
454714275966
454716347757
455021435673
455583557889
455547314260
455542369932
455549886753
455627651266
455652738338
455659548505
455634678601
455596806644
455548476572
455490534550
455438094119
455400220317
455373044196
455290227513
455234116484
455184440992
455048570920
455596771927
455826101100
455789587866
455741846091
455718792617
455365554936
455320588038
455328176386
455349220595
455445898540
455492676160
455527993125
455529497384
455515063156
455486256322
455445243135
455403929957
455372810599
455342122047
455268431049
455181542986
455056813224
455027813580
455004357071
455083284751
455070523645
455061531696
455209532349
455145479346
455089702058
455110470202
455145183983
455260453592
455328371791
455389684827
455416724901
455425744823
455416748474
455392896771
455362731319
455338045474
455309373222
455258411455
455197322334
455112157126
455239821634
455477718049
455877252180
456138810831
456103045111
456098991201
454921224642
454852472973
454886720077
454934856535
455068463026
455157274422
455242717721
455294871172
455327747969
455339307312
455333731405
455316590113
455300103137
455273466164
455228812049
455154265300
455123324597
455103301592
455252663929
455452356042
455661413995
455659515506
456175123853
454690975307
454607162578
454655199526
454716485026
454868247309
454977770831
455085950935
455162747127
455219801937
455252683067
455266544268
455264596317
455260224472
455243912003
455219258168
455169746264
455180010884
455239936057
455481164178
455768582527
456146765604
456302494046
456879335726
454453087233
454352156445
454414208196
454488277486
454657951799
454788007242
454918099465
455019157828
455100701972
455155674158
455189990313
455204612572
455213536618
455206989678
455194450227
455154558153
455167906967
455221705866
455434139759
455649416258
455992390912
456106641264
456934370651
454205711661
454085644068
454161879478
454248357069
454435705573
454586160746
454737877858
454862954038
454969296917
455047164392
455103120213
455136213621
455161478095
455169599840
455176843358
455163248870
455209174953
455295981449
455544884557
455776326251
456170547473
456325881879
457305133757
453946956160
453805780997
453896336508
453994874620
454199712813
454370496280
454543962526
454692958037
454824404342
454925915368
455004541720
455057461444
455100607432
455124354777
455149954786
455156833998
455222438924
455316330269
455565401727
455773124159
456167905234
456331116492
457436594249
453674926253
453510728252
453615720274
453726009183
453948230543
454139332290
454334950668
454507918670
454664807732
454790721032
454893115140
454967420168
455030696599
455073108933
455120888798
455152773516
455246100704
455359430852
455626453106
455836453336
456250209904
456437040848
457653783654
453387733312
453198659709
453318189292
453439954865
453679530079
453890991906
454109326642
454306462025
454489183714
454640251331
454767463261
454864533736
454949678565
455012530881
455083300557
455138332639
455255544460
455382695830
455659736966
455866682369
456289731768
456496565087
457815547166
453083489982
452867755702
453001908494
453134902019
453391860707
453623759170
453865444872
454087069824
454296087620
454473093372
454626209505
454747499500
454856419669
454941983063
455037761676
455117170561
455259910765
455404619056
455696477035
455908841922
456345352272
456575574419
457984280869
452760298225
452516190448
452665031471
452809018290
453083422714
453335848429
453601524575
453848066184
454083922913
454287688642
454467810706
454614755238
454749201963
454859348377
454981302775
455085141378
455252647930
455414318575
455720382610
455940202507
456389613184
456644102199
458135024135
452416235293
452142117417
452305682781
452460431965
452752350286
453025386989
453315653621
453587617304
453850933011
454082331200
454290599974
454464674859
454626398117
454763005779
454912472136
455041650499
455234403735
455415265625
455737402506
455967864418
456431714252
456711919226
458278017756
452049340061
451743655401
451921942058
452087217582
452396700555
452690405919
453005794465
453303733803
453595192233
453855144870
454092737107
454295440040
454486128899
454650926555
454829061093
454984449261
455202699024
455403899808
455742937910
455986330855
456465441079
456772542527
458408318922
451657601148
451318876656
451511831023
451687384085
452014446164
452328835282
452669789173
452994274360
453314602396
453604074888
453872204323
454105062755
454326381679
454521051317
454729058931
454911808108
455156211639
455379202404
455736295388
455995045588
456489904046
456825513655
458526188274
451238946965
450865797204
451073303126
451258864979
451603468955
451938500281
452305360939
452656947073
453006888812
453326876776
453626787232
453891352732
454144946091
454371134767
454610255442
454821644417
455093009547
455339183173
455715434073
455990920149
456503676930
456868237944
458630093872
450791238256
450382370329
450604235717
450799510814
451161554404
451517117331
451910112294
452289308443
452669596137
453021107268
453354062634
453651907972
453939418845
454198784935
454470352809
454711822181
455011169709
455282007652
455678516303
455973416087
456504324957
456898813169
458718928853
450312262963
449866481332
450102425555
450307083892
450686386801
451062289860
451481520923
451888760281
452300083345
452684114764
453051384321
453384097329
453707180856
454001423543
454306886499
454580019456
454908538994
455205587107
455623483323
455939806974
456489592064
456915030692
458791250713
449799733278
449315944760
449565587780
449779254075
450175545456
450571504222
451016934266
451452545193
451895517784
452313029239
452715868405
453085043101
453445377265
453776262401
454117202376
454423730895
454782780944
455107683715
455548171638
455887899777
456457298796
456915017808
458837587906
449251285161
448728504571
448991353148
449213600219
449626503136
450042127074
450513564923
450977742337
451452869464
451904752245
452344377934
452751600839
453150890750
453520267298
453898411672
454240221641
454631327364
454985846877
455450220372
455815334964
456405086531
456896149593
458878826965
448664480227
448101836366
448377271578
448607616886
449036623206
449471404617
449968488200
450461264738
450968906509
451455947683
451933507374
452380337304
452820311299
453230118882
453647347441
454026489057
454451352291
454837400404
455327078407
455719644858
456330549731
456856361504
458892447441
448036809699
447433551616
447720816822
447958710002
448403178151
448856459520
449378642615
449899859217
450440192793
450963034267
451479567810
451967507192
452449902694
452902168995
453360515463
453779214510
454239727370
454659394295
455175940836
455598147394
456231048708
456793214052
458882040203
447365700894
446721204309
447019393851
447264207945
447723341052
448194322850
448740825526
449290107677
449863089005
450422181007
450978574077
451509029783
452035566744
452532393329
453034040774
453494710166
453992974631
454448564343
454993721381
455447933114
456103752424
456704135972
458845798400
446648526063
445962299891
446270348904
446521372644
446994202906
447481916101
448051736697
448628431411
449233753990
449829307723
450426236396
451000468376
451572808112
452116342407
452663609875
453168857797
453707206631
454201272316
454776991747
455265793304
455945589109
456585219490
458781551577
445882613359
445154306169
445470981888
445727413029
446212787720
446716077209
447307958160
447911141085
448548158596
449180081060
449817956981
450437013495
451056700504
451649090670
452244407367
452797038436
453378055773
453913437436
454521918824
455048159521
455753085968
456435461289
458686792588
445065260339
444294666645
444618561655
444879501712
445376071693
445893581073
446505988118
447134415947
447802138453
448469948637
449148818011
449813473342
450481858584
451125187566
451771049381
452374053275
453000590849
453580453573
454224189430
454791036254
455522423056
456250416706
458558635134
444193749495
443380815707
443710343576
443974794317
444481005879
445011164590
445642268516
446294348623
446991379841
447694182436
448413643755
449124245649
449842417217
450538613022
451237514942
451894035092
452569218008
453197087311
453878914361
454489910504
455249310729
456026239772
458393840402
443265365791
442410195666
442743589411
443010451421
443524542217
444065556161
444713218593
445386982268
446111475747
446847877197
447607020750
448363426090
449131981328
449882736201
450637079606
451350352361
452077565883
452757354963
453480511669
454139646789
454928898534
455758596682
458188774292
442277416081
441380275491
441715589305
441983662920
442503662691
443053509396
443715274267
444408355713
445157976607
445926021138
446723323137
447524776959
448343786962
449150263137
449962229801
450735509216
451518355043
452254373655
453022559510
453734351848
454555658687
455442567260
457939348148
441227249940
440288570781
440623685441
440891674279
441415410960
441971840313
442644932653
443354556131
444126451975
444923564946
445756798660
446601797476
447470607851
448333389896
449204663727
450040995100
450883252679
451680183643
452497609531
453267197008
454123232258
455072512932
457640922520
440112281454
439132664526
439465296843
439731814109
440256925754
440817467183
441498800738
442221778331
443012562567
443835506501
444701662999
445587827669
446504882272
447423707098
448355332212
449257366591
450162656030
451025516345
451896956545
452730190844
453624239463
454641941924
457288258091
438930011759
437910228460
438237945092
438501522700
439025475449
439587452145
440273647040
441006389221
441812141144
442656990223
443552216874
444476176608
445438838982
446412348500
447404407693
448374092295
449345772652
450279586170
451210279973
452113850980
453049972406
454143229158
456875282801
437678051624
436619044421
436939280430
437198380999
437718493235
438279043917
438966455360
439704996471
440521281381
441383420911
442302987658
443260289121
444264678331
445290163946
446341447468
447379629799
448420384039
449429983155
450425492020
451406776752
452390067619
453567486567
456395354970
436354143090
435257024608
435567106678
435820137808
436333609742
436889717205
437574474588
438314513158
439136423818
440010578197
440948878631
441933931669
442974787714
444047942774
445155587988
446261544710
447372877267
448462359288
449528241159
450595147245
451631632768
452903492980
455840128492
434956179723
433822231788
434119408052
434364740602
434868691290
435417220328
436095280054
436832238864
437654465693
438534766937
439485373463
440491463305
441562084421
442676820158
443835987840
445006945070
446188623627
447360730195
448502036515
449662571870
450759540367
452138494758
455202605251
433482224930
432312892821
432594361221
432830340986
433321839783
433859568660
434526761240
435255843418
436072744684
436952807739
437908542092
438927865077
440020068195
441168333854
442371837906
443602359588
444851615641
446106729888
447326966692
448587860196
449752496425
451251232080
454467479222
431930520887
430727434257
430990413769
431215418274
431691571839
432215289362
432867446588
433583790993
434389588885
435262749932
436215966627
437239944238
438344379914
439516417165
440754854609
442036785865
443348137472
444684044372
445985185836
447351857073
448592423934
450226953676
453642425351
430299523618
429064382433
429305990213
429518251959
429976022272
430482313618
431115034308
431813450037
432601934728
433460914571
434403112158
435421920458
436527464224
437710954697
438971452775
440292073496
441654778791
443063379473
444442026933
445913076739
447229871421
448995035721
452653429691
428587714020
427322991374
427541251534
427739971734
428177465985
428664162508
429274474659
429951344400
430718077365
431557543632
432482362902
433488448080
434586310164
435771129045
437042734459
438390744202
439795429049
441270500220
442728177027
444310661065
445721308523
447640197190
451685896370
426794787033
425499707735
425688073324
425867195534
426276746111
426735270853
427313152844
427957026655
428688871631
429493759882
430383927943
431357397640
432424749989
433584559499
434837326597
436178689876
437588645830
439091380303
440592359883
442252597342
443713383692
445683326668
449953802540
424915028415
423608301443
423786116250
423968248460
424373800921
424829772246
425402352084
426041929637
426769251869
427571545963
428460683968
429436558110
430509688304
431681512339
432953170769
434325770297
435780442050
437353743395
438951775596
440784010946
442425297588
444902372058
449733705611
422913231062
421609321554
421789393448
421980151755
422386716962
422841342373
423408695397
424041181815
424759477262
425552167607
426431264779
427398010811
428463010659
429629574827
430898763532
432274948970
433737424856
435333172502
436949657501
438897210554
440401792550
444224446694
446345103916
420772667551
419457812524
419614786641
419786994614
420165224784
420587473728
421116512632
421706541021
422377907846
423120181998
423945231154
424855223832
425860554546
426965931368
428171834680
429485459211
430881084707
432422229255
433935122984
435982329605
436741944217
443235847895
437386989458
418533885765
417222227966
417364875390
417527749184
417886417943
418285283510
418785255300
419342498820
419977228414
420680082683
421462980516
422329094463
423288800420
424348322160
425507518591
426777538613
428123240659
429643088880
431026666973
433365183682
432808391049
443398974195
426983515642
416186116942
414888056616
415022830010
415183588602
415529328809
415911310236
416388467822
416918970583
417522950023
418192061095
418938301693
419765762341
420684765837
421703048966
422819285654
424050627497
425344031321
426865133101
428050989213
430900826665
428415989089
444237440777
415910142865
413716101000
412437229740
412565606376
412726431399
413060720789
413426990379
413882007890
414385939369
414958830251
415593269564
416301323175
417087911415
417963217164
418936630841
420004635427
421194088305
422420450798
423964424782
424856462831
428448138403
423455936307
445328311103
404369315867
411115004477
409858913953
409979968492
410140523660
410462282941
410811446586
411242402210
411717315410
412256135912
412852324138
413518009992
414258902974
415084929577
416007513653
417019333382
418162761991
419302183366
420896476580
421385170038
425941663760
417934183488
445971103344
392629337592
408376701808
407146418727
407258319143
407417266872
407724388835
408054045545
408458027118
408900518551
409401363875
409954851418
410573172271
411262829511
412033306508
412898725169
413845521842
414939795106
415969016702
417646368748
417617441047
423336902922
411906101649
445335226616
381094226153
405496303076
404294739273
404395251459
404550785959
404840663297
405147925875
405521545785
405927764010
406386305345
406892256516
407457857645
408090454188
408798788760
409600688854
410472922503
411516069113
412408994894
414204906102
413545543430
420590297057
405417377636
444566930696
369566382015
402469632748
401299711806
401386363482
401536400020
401806112135
402087787681
402427355550
402793164388
403204800567
403658131836
404165418237
404734947425
405374278041
406106354883
406893758599
407884824079
408613186918
410563449260
409168373727
417658542411
398555649690
443822607470
357780749166
399293077990
398157763416
398227904976
398370160862
398616556064
398869226296
399170824658
399491873632
399851795074
400247232527
400690413633
401190729385
401753935417
402409959811
403101547257
404040376522
404574526132
406712930613
404487674973
414500828593
391348483551
442883228681
345687019207
395963552219
394865839611
394916668571
395048702343
395268439624
395488503611
395748028561
396019791473
396323015449
396655127652
397028241816
397453087080
397932794447
398506630304
399090749009
399977739493
400287480624
402644214620
399507871653
411080976426
383864438962
441980129446
333118023498
392478502401
391421398335
391449970421
391569203398
391758777362
391942478834
392155666934
392373468658
392614864398
392878087962
393175022609
393518056027
393906649615
394392266823
394856685957
395692530467
395747849571
398348298073
394234129867
407368099279
376128264427
440888027039
320087193098
388835935338
387822432586
387825669939
387929401732
388085160936
388228610523
388391061458
388550101618
388724413783
388913078976
389127592548
389382418110
389672064157
390063550461
390395573730
391181030057
390952687787
393816846641
388672017214
403337272997
368173153999
439064344125
306779798773
385034452016
384067504939
384042205002
384127628085
384245792420
384344989142
384452188246
384547566114
384649439983
384757799392
384883547569
385043748601
385226427911
385518004324
385704595963
386440307987
385900261725
389042611949
382826975742
398968854765
360018239543
436143152418
293434071599
381073284528
380155786288
380098633071
380162848764
380239527960
380290382302
380337724628
380364466191
380388475885
380410736795
380441304142
380500482658
380568033677
380754075851
380781989303
381468378073
380590050008
384019854974
376704603597
394248008512
351686099253
432444793888
280070260665
376952331258
376087093212
375994671470
376034708787
376065922898
376064282071
376047099256
376000187446
375940867547
375871228702
375800165267
375751986219
375696156232
375771225465
375627126600
376264352766
375022763483
378744509165
370311514111
389162878986
343202814771
427933961066
266708242983
372672189651
371861923094
371730735285
371743572485
371725274933
371666951049
371580540410
371454948608
371306829448
371139521877
370960384850
370798625129
370611128120
370570014411
370240594084
370828577569
369200461817
373213652848
363661005988
383689469155
334601326462
422593554481
253364358442
368234184682
367481485039
367307970503
367290559546
367218662673
367099463563
366939120122
366729848672
366487494727
366216826193
365923226421
365641828520
365314407138
365152184712
364624265182
365162728752
363126947124
367424905128
356779073428
377791603169
325903889694
416429851490
240054956262
363640391412
362947724540
362728281058
362677574780
362547977576
362363740388
362124791271
361826906528
361484957827
361105360997
360691014010
360284143651
359808633596
359520725856
358781358256
359269752107
356808108569
361375471048
349690054896
371449751399
317128689794
409447217386
226801057254
358893652379
358263342988
357994349301
357907330704
357715948700
357462575722
357140416362
356749092202
356302308044
355808390793
355267171561
354729272207
354097666886
353679934651
352716648838
353153595912
350255387312
355057520740
342413926746
364661534316
308295321226
401648467566
213627845426
353997588301
353431810074
353109649321
352983362112
352726158154
352399654467
351989784843
351500344377
350943647287
350330243901
349656265770
348982146131
348186661562
347635357283
346435629138
346818861254
343485189529
348463002900
334965623683
357437203840
299423795555
393037547521
200564777824
348956602161
348457368679
348078451010
347910029994
347583045755
347179562837
346677636078
346085602968
345414134364
344676345377
343863903752
343048284276
342081289986
341393974309
339950047738
340266659485
336509458061
341596372368
327360902141
349790041292
290533828783
383621271307
187645395159
343775882177
343345038785
342905823922
342692528911
342291914304
341807751973
341209469453
340510483264
339719497231
338852705302
337897158081
336935566679
335790063065
334961247650
333269128774
333505092358
329342850228
334465558900
319614986281
341736791864
281644459543
373410731898
174906791964
338461376590
338100573917
337597553986
337336717471
336858747408
336290621024
335592064075
334781968244
333867127021
332866956308
331763316200
330652091451
329323151210
328347430682
326404830617
326543243802
322000842404
327082169405
311742606367
333297913665
272773703631
362422565663
162388944955
333020202178
332730952214
332160516356
331849576050
331290555350
330635023402
329832514777
328907711260
327865153923
326727785076
325471700334
324206918487
322690687602
321562257845
319370071796
319391263425
314499860517
319459551880
303759160307
324497362559
263938146375
350680040209
150133984136
327460730013
327243374841
326601871239
326238269516
325594754443
324848610235
323938674520
322895862680
321722162565
320444175258
319032330138
317609805323
315905733627
314614187274
312186489243
312049193358
306880243317
311585416028
295703961390
315355267417
255154450751
338213648226
138185510122
321791361366
321645058160
320929726192
320510586733
319779665698
318939951746
317919567115
316755849341
315448115734
314026521467
312456541990
310872078850
308981649001
307514834583
304871079235
304526819101
299168345781
303446587122
287662869190
305811844736
246484590390
325060259851
126587714592
316020652324
315943974234
315152503746
314675131475
313854327958
312918462179
311785096337
310498050456
309053982979
307486362142
305756739053
304006678904
301932559164
300278981678
297439211649
296843493788
291375554666
295076310135
279627827828
295843996841
238037716387
311235800560
115383665447
310157420978
310148685570
309279389684
308741385021
307828727262
306794551383
305546195550
304133903379
302551805985
300836329460
298946361196
297027734837
294773458196
292923066493
289906476761
289021552442
283511993581
286513335837
271587236981
285525075298
229840207851
296755688284
104613944218
304210790252
304268180527
303320018556
302719309110
301713349433
300579153200
299214348625
297675433794
295954247841
294089735851
292039508277
289950221112
287519922333
285464778978
282288623614
281085367244
275587114655
277799343209
263527659241
274936809586
221846645271
281712693661
94316013540.1
298190220595
298311854475
297284440661
296619311995
295519146579
294283697260
292801563021
291135228798
289274563596
287260544955
285050912938
282789908251
280188118294
277922889301
274601795792
273060708598
267610658668
268977168816
255436211409
264164328646
214006460958
266211780111
84522665430.7
292105490551
292289469355
291183073350
290452198533
289257482622
287920053041
286320309325
284526371649
282526527645
280363291668
277995864307
275563250754
272794766009
270317009012
266862712633
264974091932
259593465104
260089194255
247302715818
253292230856
206267030710
250374813852
75266034408.6
285966645767
286211092131
285026629962
284229094832
282940051965
281500444531
279783430394
277862345763
275724332421
273412972236
270890106283
268287246288
265357081646
262667340359
259088800700
256852197388
251548088558
251176021851
239121457963
242400706916
198566003801
234207378046
66677731003.4
279783931180
280087021043
278826039542
277961364211
276578788919
275037355767
273204041490
271156929763
268882480262
266424928238
263749733602
260979294489
257892716508
254994453029
251298279043
248721427970
243489219777
242275570316
230892500296
231562686379
190844664095
217856717377
58759998314
273567714173
273927705468
272592360151
271660516532
270185772182
268543430991
266595426171
264424089707
262015673869
259414729547
256591087863
253657062538
250419692223
247319104751
243510201280
240607639222
235433928677
233422659764
222622552737
220841860712
183051509211
201480091663
51506388003
267328400413
267743658268
266336686739
265338112848
263773125266
262031371841
259970930309
257677869287
255138706070
252398058681
249430655860
246338363995
242956335290
239662115988
235744463319
232536053633
227401775476
224649106051
214325453714
210291753651
175146101213
185238009821
44904592125.6
261076340799
261545359372
260070050861
259005661940
257352910126
255513827513
253343849718
250932275214
248266346593
245390594983
242284967176
239041049703
235521209856
232044298705
228021791484
224531350103
219414845637
215984289145
206022326754
199955996720
167103028838
169290564829
38937447672.4
254821759024
255343178869
253803340944
252674537516
250937041800
249003306871
246727340655
244201185893
241413252630
238407925148
235170517296
231782935722
228133074177
224486456428
220363746527
216617924129
211497782496
207456129640
197741516462
189869822148
158915740637
153794338361
33584109324.2
248574317223
249146941868
247546872008
246355551401
244536866234
242511759810
240134006378
237497942844
234593568161
231465150297
228103390864
224581447297
220810549281
217009138406
212792453722
208819988802
203677583160
199092116476
189518208178
180062530025
150599870494
138899977751
28821708346.5
242345126350
242967866539
241312221251
240060678959
238164764952
236052055970
233577246611
230836570077
227822017022
224577856030
221100117182
217454376752
213572770179
209633280179
205331078883
201162353116
195983896951
190920812398
181394121531
170560870509
142195122135
124750710470
24628397392.4
236104998339
236778733388
235074175884
233767121830
231800399547
229606552746
227042221244
224205207606
221089853243
217740623270
214158755087
210403590919
206425654069
202369239724
197995366806
193665583999
188447142521
182977561518
173426732782
161414798122
133780335636
111535228966
20994311251.6
229602908472
230341925260
228600653348
227250790370
225226076801
222964403942
220324529131
217406049438
214205847248
210769052515
207101860782
203259172594
199207032205
195063886558
190642339739
186200742095
180961579530
175198360142
165625835683
152768185607
125585879592
100012757760
17988997500.2
223199496436
224003753697
222226264788
220836143126
218756783509
216432258415
213723141444
210731176040
207455787960
203943301161
200204487950
196291752902
192183756167
187981182924
183535284557
179032748352
173806690267
167887332204
158362736159
145075818541
118213733238
90875379340.2
15670518932.9
216852996041
217724079372
215913392214
214488097581
212360115345
209980476114
207211289706
204156801268
200819020582
197245961520
193452793117
189491002839
185349992360
181118715253
176678677803
172167448900
167001100907
161049108997
151658592768
138253535902
111631417546
83559802770
13898431820.3
210566224698
211505316048
209664914219
208210070349
206040175864
203613948544
200794753963
197689687526
194303401273
190686058764
186857173111
182868606907
178719282808
174490947993
170089740495
165620274603
160563490880
154684468525
145502610976
132122255886
105845747013
77668098524.2
12541125178
204347621721
205355295130
203488809481
202010248430
199805489290
197341628594
194483003373
191339899962
187919676312
184275063921
180429933133
176437556257
172305521342
168111678602
163782742449
159401798251
154500875794
148770809362
139807018804
126651538459
100819055369
72862959766.6
11478549113.9
198206645439
199282899796
197394022531
195897672924
193665298850
191173031281
188285886117
185117667262
181678491563
178024020265
174182500562
170209386860
166120215364
161991246738
157766583507
153514170580
148796005269
143256280941
134591131671
121772566963
96432004786.2
68890023152.4
10637987649.5
192152297163
193296626183
191389096926
189880940097
187628336176
185117066369
182212519726
179032320604
175589368756
171942539451
168124429382
164193171983
160171592206
156135689272
152042957401
147937902312
143437823843
138142323938
129809854646
117403702573
92579070367.3
65562046120.2
9966570166.3
186192927073
187404376988
185481971346
183968001229
181702623672
179181840373
176271089294
173092082982
169660480702
166038553480
162263162743
158395412755
154464138001
150542707812
146595404968
142677952306
138420353240
133397262887
125415418440
113470672497
89171452552.8
62739484851.2
9424280066.24
180336233752
181613449875
179679960733
178166138453
175895443929
173374617665
170468798211
167304005679
163898578049
160318296432
156604077984
152819314143
148991176430
145204684037
141434699576
137723722534
133721053408
128987236479
121362039599
109908846588
86135386352.8
60316464345.6
8980989010.89
174589249343
175930516449
173989730049
172481934678
170213305528
167701780104
164811822379
161673945341
158309059773
154786096832
151148244456
147456217888
143757174554
140127950447
136550612826
133058130784
129315449504
124879048934
117607963596
106662908129
83409669169.9
58211462263.9
8614109786.66
168958315531
170361594242
168417263172
166921239291
164661907093
162168804005
159305338245
156206526214
152895460331
149438920509
145891711184
142316487763
138762678102
135304798846
131930065451
128662302810
125178962643
121041595415
114115914178
103685863716
80943500677.3
56361079904.2
8306616609.51
163449061798
164912021044
162967838187
161489152909