/*--------------------------------*- C++ -*----------------------------------*\
| =========                 |                                                 |
| \\      /  F ield         | OpenFOAM: The Open Source CFD Toolbox           |
|  \\    /   O peration     | Version:  2112                                  |
|   \\  /    A nd           | Website:  www.openfoam.com                      |
|    \\/     M anipulation  |                                                 |
\*---------------------------------------------------------------------------*/
FoamFile
{
    version     2.0;
    format      ascii;
    arch        "LSB;label=64;scalar=64";
    class       volScalarField;
    location    "0.0051";
    object      Mach;
}
// * * * * * * * * * * * * * * * * * * * * * * * * * * * * * * * * * * * * * //

dimensions      [0 0 0 0 0 0 0];

internalField   nonuniform List<scalar> 
5589
(
0.0675147584889
0.0667814072232
0.0648412792855
0.0622230689638
0.0590401858496
0.0555023120045
0.0517289287427
0.0478466493755
0.043946417616
0.0401042571884
0.036373260901
0.0327868755293
0.0293602414972
0.0260816157001
0.0229207076096
0.0198188463269
0.0167170496867
0.0135218406708
0.0102187647502
0.00682826041452
0.00361657983153
0.00153471042608
0.00267251402565
0.0693761012674
0.0686403661346
0.0667141799157
0.064107534752
0.0609342797871
0.0573936458627
0.0536007473783
0.0496757484361
0.0457079093381
0.0417723826591
0.0379215971687
0.034188581218
0.0305859758861
0.0271016575272
0.0237037735046
0.020342756074
0.0169712194343
0.0135796365338
0.0102378552986
0.00717095103919
0.00461670946217
0.00278119052801
0.0012127430083
0.0708975620067
0.0701490620415
0.0681999384054
0.0655618471211
0.0623534473536
0.0587708000126
0.0549353182269
0.0509705998965
0.0469682183085
0.0430037310425
0.0391276969963
0.0353692638832
0.0317323777582
0.0281965870084
0.0247229471971
0.0212646280212
0.0177878811969
0.0143149362564
0.0109609959352
0.00791827589515
0.00534726967481
0.00313336508944
0.000480975693148
0.0721728408767
0.0714241739203
0.0694824899795
0.0668539541997
0.0636590557284
0.0600884897933
0.0562636939363
0.052305427418
0.0483024827332
0.0443264493556
0.0404228351999
0.0366153141406
0.0329017634066
0.0292600798323
0.0256546167064
0.0220565945129
0.0184661691909
0.014966707561
0.0117114411343
0.00889838920547
0.00657898384408
0.00468049920684
0.00286491184162
0.0735171534662
0.0727682227517
0.070833170852
0.0682126597257
0.0650276973847
0.0614637958145
0.0576422555503
0.0536818404734
0.0496698741472
0.0456758003185
0.041742271533
0.0378897498204
0.0341128934104
0.0303902572196
0.0266919611611
0.0230059289687
0.0193594123271
0.0158597958112
0.012657489001
0.0098887410154
0.00753947508379
0.00546422612744
0.00322554597104
0.0748849325173
0.0741359832695
0.0722078848924
0.0695964103209
0.0664227659433
0.0628680326718
0.0590528422361
0.0550935848997
0.0510753709556
0.0470646356544
0.0431004456346
0.0391998153718
0.0353554697401
0.0315491235022
0.0277608003206
0.0239995617394
0.0203212439863
0.0168558278636
0.0137450954595
0.0110900841337
0.00884081846812
0.00688588582376
0.0049603798578
0.0762828272971
0.0755344724349
0.0736146293817
0.0710140954975
0.0678536460255
0.0643101677629
0.060502940231
0.0565457149551
0.0525212430992
0.0484931941914
0.0444978429882
0.0405502080203
0.0366434088965
0.0327644583275
0.0289047376127
0.0250916297969
0.0213993140483
0.017960014747
0.0148922497206
0.0122555118644
0.00997849512096
0.00795045692295
0.00593267486075
0.0777175605344
0.0769702157817
0.0750595061098
0.0724711458332
0.0693249940568
0.0657940096575
0.061995666763
0.0580409700771
0.0540102416341
0.0499645363781
0.0459378129949
0.0419440223914
0.0379781928707
0.034034090574
0.0301156664834
0.0262675783588
0.0225784539146
0.0191794946824
0.0161694835074
0.0135832024879
0.0113449197082
0.00935726581704
0.00744977276709
0.07919399275
0.0784480235874
0.0765472217137
0.0739720706464
0.070841110565
0.0673235620773
0.0635347224514
0.0595827814719
0.0555456500816
0.0514820671679
0.0474243451302
0.0433864517049
0.0393666762945
0.0353663430004
0.031401469699
0.0275299921107
0.0238477036513
0.0204770005932
0.0174962020254
0.0149195059202
0.0126689622781
0.0106544645269
0.00875672735163
0.0807169939448
0.0799727350655
0.078082532374
0.0755214577619
0.072406394474
0.0689029502087
0.0651239739486
0.061174837302
0.0571311329225
0.0530496357735
0.0489616667155
0.0448821425679
0.0408136081259
0.0367654015016
0.0327650051212
0.0288810795589
0.0252133662279
0.0218748377272
0.0189282021288
0.0163739515605
0.0141354741017
0.0121279917824
0.0102880183662
0.0822912151373
0.0815489826225
0.0796700039788
0.0771237485918
0.0740251654066
0.0705363222368
0.0667674325834
0.0628210921371
0.0587707153324
0.0546714948441
0.0505543947074
0.0464360725311
0.0423239742435
0.0382353613209
0.0342077704339
0.0303173386237
0.0266640536618
0.0233500748113
0.0204244272912
0.0178770107002
0.0156327046271
0.0136120508497
0.0118129427031
0.0839210891529
0.0831811981304
0.0813140344334
0.0787832736871
0.0757017031341
0.0722278793407
0.0684692580632
0.0645257325538
0.0604687091044
0.0563521836196
0.0522073491659
0.0480532518184
0.0439026490986
0.0397804597681
0.0357330026499
0.0318417069908
0.0282051995199
0.0249156027434
0.0220110378477
0.0194733014488
0.0172288574771
0.0152022431863
0.0134563346617
0.0856108630123
0.0848736435397
0.0830188823195
0.0805042744571
0.0774402577258
0.0739818709934
0.0702337368832
0.0662931378137
0.0622296570942
0.0580964620206
0.0539254874607
0.0497386521872
0.0455541829051
0.0414041253851
0.0373421401641
0.0334529162739
0.0298323056157
0.0265628382931
0.0236732709194
0.0211389103336
0.0188879422755
0.0168494526959
0.0151590950176
0.0873646188706
0.0866304297639
0.0847886830715
0.0822909131996
0.0792450509105
0.075802584485
0.0720652588074
0.0681278437467
0.0640582878369
0.0599092672089
0.0557138927976
0.0514973048923
0.0472832043797
0.0431101843247
0.0390380220837
0.0351532961282
0.0315484866203
0.0282974028882
0.0254207884189
0.0228886404065
0.0206307582984
0.0185805774061
0.0169525084687
0.0891862914883
0.0884555316617
0.086627460225
0.0841472777242
0.0811202726391
0.077694330772
0.0739682924025
0.0700345098649
0.0659594764695
0.0617956711872
0.0575777278793
0.05333422689
0.0490942124695
0.0449021884863
0.0408229244038
0.03694380123
0.0333534979147
0.030117772349
0.0272502865861
0.0247167521571
0.0224487739347
0.0203844832034
0.0188248974852
0.0910796806015
0.0903527977709
0.0885391309897
0.0860773806235
0.083070073729
0.0796614286967
0.0759473620986
0.0720178920659
0.0679382172081
0.0637608619472
0.0595222441892
0.0552544980372
0.0509918028681
0.0467839686765
0.0426998332745
0.0388268461103
0.0352497197287
0.0320268274014
0.029165531773
0.0266281185524
0.0243480722469
0.0222683142114
0.0207839215319
0.093048457138
0.0923259541716
0.0905275062982
0.0880851539989
0.0850985555626
0.0817081884017
0.0780070265542
0.074082818364
0.0699995995871
0.0658101248134
0.0615527726904
0.0572632551633
0.0529806246876
0.0487594318869
0.0446718092687
0.0408047416439
0.0372388918542
0.0340258191413
0.0311672604984
0.0286228868628
0.0263282368744
0.0242311868744
0.0228290301158
0.0950961641773
0.094378603574
0.092596286705
0.0901744410605
0.0872097578654
0.0838388943787
0.0801518580645
0.076234167078
0.0721487894652
0.0679488330733
0.0636747343989
0.0593657359285
0.0550654757478
0.0508327430882
0.0467423447872
0.0428804442241
0.0393236602613
0.0361172785142
0.0332580421954
0.0307037380483
0.0283920795114
0.0262759738785
0.0249632411419
0.0972262133615
0.0965142203432
0.0947490548345
0.092348985067
0.0894076444958
0.0860577874151
0.0823864215752
0.0784768452567
0.0743910109785
0.0701824391508
0.0658936461994
0.0615672988949
0.0572513219361
0.0530083036556
0.0489152283713
0.045057199959
0.0415068518609
0.0383037146111
0.0354401527052
0.0328727438696
0.0305414955201
0.0284044015821
0.0271885228249
0.0994418779506
0.0987361425505
0.0969892652851
0.09461241617
0.0916960873124
0.0883690449419
0.0847152523941
0.0808157662886
0.0767315286634
0.0725164674003
0.0682151304277
0.0638734530638
0.0595433452864
0.0552908158674
0.0511946369227
0.0473387117186
0.0437918038691
0.0405882108458
0.0377165292475
0.0351327333171
0.0327792103597
0.030619059199
0.0295076236419
0.101746283415
0.101047561783
0.099320232474
0.0969682362933
0.0940788478559
0.0907767590829
0.0871428315652
0.0832558253415
0.0791756278117
0.0749565052553
0.0706449215718
0.0662898803378
0.0619469750621
0.0576853082643
0.0535851381251
0.0497291038687
0.046182271157
0.042974240905
0.0400904519928
0.0374868181274
0.0351081696167
0.0329227110926
0.0319235172533
0.104142396091
0.103451511086
0.101745116589
0.0994198019559
0.0965595565121
0.093284911809
0.0896735580718
0.0858018715476
0.0817285916554
0.0775081913036
0.073188869969
0.0688224558794
0.0644679210591
0.0601971761452
0.0560917367384
0.0522329833021
0.0486825165693
0.0454658007767
0.0425657252993
0.0399386231682
0.0375318095201
0.0353185806578
0.0344396288138
0.10663301054
0.105950851568
0.104266908004
0.101970305211
0.0991416891939
0.0958973470264
0.0923117174293
0.088458676085
0.0843956739419
0.0801771981925
0.0758529397926
0.0714772625879
0.0671122015917
0.0628322174798
0.0587199137706
0.0548554798637
0.0512973488295
0.0480674358632
0.0451466869107
0.0424922800997
0.0400540436021
0.0378103550164
0.0370598916003
0.109220735907
0.108548257878
0.106888410279
0.104622752753
0.101828541518
0.0986177394191
0.0950614462036
0.091230895202
0.0871820653082
0.0829692082179
0.078643199116
0.0742605983945
0.0698861673728
0.0655966707137
0.0614756759154
0.0576023063801
0.0540321908036
0.0507843130648
0.0478382801927
0.0451524933176
0.0426793162007
0.0404021971661
0.039788764603
0.111907981506
0.111246202747
0.109612221921
0.107379943326
0.104623200608
0.101449560089
0.0979266921812
0.094123027391
0.0900928519425
0.0858898793654
0.0815657993521
0.0771789735766
0.0727965184602
0.0684972507304
0.0643656083443
0.0604798245137
0.0568931523475
0.0536222943568
0.0506461261861
0.0479246144637
0.0454126878869
0.0430988638521
0.0426313077196
0.114696941788
0.114046940782
0.112440717091
0.110244443658
0.107528514857
0.104396039126
0.100911170085
0.0971393640258
0.0931329650771
0.0889447994989
0.0846269410699
0.0802390948034
0.0758503112774
0.0715411809157
0.0673969305869
0.063495119409
0.0598871154035
0.056588023743
0.0535766066471
0.0508147176096
0.048259899105
0.0459057498175
0.0455933045587
0.117589581262
0.116952492043
0.11537602588
0.11321856363
0.110547062203
0.107460125857
0.104018313084
0.100283933235
0.0963071202356
0.0921394265383
0.0878328229145
0.0834478317404
0.0790549511184
0.0747362169911
0.0705775521707
0.0666560815392
0.0630218320045
0.0596890311466
0.0566369671102
0.0538296977413
0.0512274610614
0.0488289689067
0.0486812827477
0.120587619217
0.119964625351
0.11842001413
0.11630433073
0.113681117281
0.11064444671
0.107251220389
0.103560436587
0.0996197450717
0.0954790123235
0.0911895698389
0.0868121609567
0.0824181639154
0.078090656448
0.073916123295
0.0699714937283
0.0663060361138
0.06293385593
0.0598354423162
0.0569773923492
0.0543227737096
0.0518754649763
0.0519026647494
0.123692515125
0.123084842179
0.121574263798
0.119503464903
0.116932618553
0.113951262274
0.110612601649
0.106972179647
0.103074895854
0.0989685088126
0.094703137396
0.0903390815315
0.0859479396713
0.0816133252565
0.0774220735231
0.0734511196371
0.0697495697289
0.0663321937481
0.0631814083985
0.060266727317
0.0575542572236
0.0550531324601
0.0552658842662
0.126905454803
0.126314361304
0.124840054068
0.122817354175
0.12030313599
0.117382424053
0.114104719493
0.110521996625
0.10667616295
0.102612455531
0.0983791884329
0.0940354957008
0.0896524376273
0.0853135300241
0.0811056273795
0.0771057864156
0.0733635218324
0.0698950714932
0.0666855721016
0.0637079037745
0.0609315277553
0.0583709701002
0.058780542464
0.130227338002
0.129654104862
0.128218344006
0.126247031974
0.123793840495
0.1209393325
0.117729331678
0.114212171692
0.11042656645
0.106414848733
0.102222940397
0.0979080481317
0.0935398422353
0.0892009606513
0.0849777810866
0.0809474492725
0.077160374916
0.073635052609
0.070360204108
0.0673126318019
0.0644656151294
0.0618392802113
0.0624576102288
0.133658767959
0.133104686393
0.131709757381
0.129793156983
0.127405476172
0.124622897838
0.121487635062
0.118044359157
0.114328445375
0.11037899384
0.106238982198
0.101962919051
0.0976181573341
0.0932855246842
0.0890502179198
0.0849892175719
0.0811541472256
0.0775664729888
0.0742194277216
0.0710944294522
0.0681692435194
0.0654699150712
0.0663096757269
0.137200043467
0.136666401419
0.135314570305
0.133455996346
0.131138336606
0.128433505412
0.125380213895
0.122019506136
0.118383344269
0.11450734597
0.11043106281
0.106205567013
0.101894928192
0.0975770908755
0.093335131666
0.0892453108648
0.0853605074072
0.081705700355
0.0782795730737
0.0750690086806
0.0720571998802
0.069276604645
0.0703512680786
0.140851154061
0.140339221087
0.139032702234
0.137235412993
0.134992246325
0.132370987381
0.129406995285
0.126137781976
0.122591903186
0.118801344919
0.114801857949
0.110640423591
0.106376880418
0.102085120107
0.0978449198579
0.093730897304
0.0897968200276
0.0860713955725
0.0825596021713
0.0792547745773
0.0761468234498
0.0732753881376
0.0745992764746
0.144611779054
0.144122789525
0.142863710998
0.141130857909
0.13896654862
0.136434602676
0.133567214992
0.13039851945
0.126953758583
0.123261254852
0.119352725548
0.115270547811
0.111069476301
0.106818160204
0.10259170202
0.0984617505887
0.094482052457
0.0906847285321
0.0870815982623
0.0836734719964
0.0804586729828
0.0774852097678
0.0790735253848
0.148481291311
0.148016425552
0.146806792395
0.145141368029
0.143060100792
0.140623026969
0.137859396583
0.134800172968
0.131467463682
0.127886021542
0.124083467019
0.120097257547
0.115976396437
0.111783196157
0.107586615444
0.103453638035
0.0994364368447
0.0955694528062
0.0918712749563
0.0883510024763
0.0850174355095
0.0819287334552
0.0837975193009
0.152458766416
0.15201912901
0.150860784485
0.149265569995
0.147271277347
0.144934353894
0.142281346537
0.139340298871
0.136130437588
0.132673162755
0.128992117713
0.125119767791
0.121098975629
0.116984863802
0.112838858356
0.108721348528
0.104680734023
0.100751679259
0.0969584072809
0.0933184298788
0.0898532123811
0.086633584745
0.0887996172789
0.156542998783
0.15612959243
0.155024176855
0.153501689915
0.151597981282
0.149366107886
0.146830166443
0.144015560873
0.140938950192
0.137618705931
0.134074791492
0.130334873409
0.126435638413
0.122424562632
0.118354468049
0.114277258568
0.110234888621
0.106259051027
0.102376908288
0.0986130408256
0.0950032010765
0.0916340281537
0.094114399103
0.160732526552
0.16034621894
0.159295125805
0.157847570716
0.156037665936
0.153915272342
0.151502287916
0.148821769551
0.145888157724
0.142717198761
0.139325622919
0.135736745935
0.131981433877
0.12809958657
0.124134934237
0.120129448064
0.116115925156
0.112119010356
0.10816421028
0.104279349127
0.100514157935
0.0969740960387
0.0997858962626
0.165025668001
0.164667144826
0.163671470134
0.16230068802
0.160587353914
0.158578314484
0.156293505609
0.153753924844
0.150972151942
0.147961752202
0.144736769314
0.141316819534
0.137727668135
0.134002292154
0.130175648912
0.12627924658
0.122334683626
0.118355326974
0.114358723803
0.11036870887
0.106444470696
0.102710680152
0.105869311253
0.169420573092
0.169090276908
0.168150772393
0.166858207979
0.16524371808
0.163351296786
0.161199127182
0.158806414691
0.156184217805
0.153344364105
0.150298792905
0.147064188524
0.143662202462
0.140120066452
0.136465174088
0.132719355845
0.128892521976
0.124983732534
0.120995854588
0.116938219935
0.112868368817
0.10892378481
0.112446027836
0.173915308687
0.173613295706
0.172730248453
0.17151684931
0.170002871168
0.168229589617
0.166213603494
0.163972559191
0.16151628861
0.158855282241
0.155999921032
0.152964727607
0.149768327641
0.146433705329
0.142982628641
0.139429437291
0.135774111963
0.132001288861
0.128094707257
0.12403778795
0.11986747909
0.115711831151
0.119611260726
0.178507918698
0.178233898934
0.17740734647
0.176273869298
0.17486181244
0.173209834227
0.17133307114
0.169247807694
0.166962887473
0.164487799502
0.161831825073
0.159007998732
0.156032927673
0.152926868923
0.149708220188
0.146387015023
0.142957345959
0.13939353898
0.135661889539
0.131714250486
0.127547983343
0.123244685236
0.127593104186
0.183196975134
0.182948706181
0.182176544861
0.181121539985
0.179810349779
0.178279094133
0.176541496765
0.174612635261
0.172500518421
0.170213878451
0.167761218127
0.165154577343
0.162409305459
0.159544152551
0.156576121652
0.153514137373
0.150351480888
0.147059696737
0.14359742328
0.139891963366
0.135896399734
0.13158363617
0.136488592419
0.18797935754
0.187760206537
0.187048845828
0.186080548346
0.184879579581
0.183479443679
0.181892439994
0.180132531715
0.178206971127
0.17612386706
0.173891081893
0.171519868563
0.169024647442
0.166423247562
0.163732401087
0.160961992626
0.158108635429
0.155148593829
0.152048791603
0.148735333293
0.14517613666
0.141232382615
0.147598850195
0.192857424765
0.192624067483
0.191926049918
0.190996555253
0.189856867673
0.188537812254
0.187049998036
0.185406141076
0.1836125625
0.181676661194
0.179605618645
0.177409963937
0.175103320873
0.172702764222
0.170224867479
0.167680385576
0.165069447738
0.162372964958
0.159572488849
0.156591338911
0.153497640216
0.149887025051
0.15875734967
0.197863284088
0.197610062402
0.196917714929
0.196018519619
0.194931391338
0.193684561211
0.192287075313
0.190750424227
0.189080092051
0.187282834404
0.185365268322
0.183337316478
0.181211934893
0.179005504225
0.176734409244
0.174409858264
0.172035237643
0.169593378927
0.167084809833
0.16440370193
0.161799537866
0.158319082417
0.169863194881
0.203005673676
0.202728108965
0.202033969361
0.201156617439
0.200113306338
0.198929874135
0.197613852917
0.19617553086
0.194619563054
0.192952080803
0.191179170804
0.189310202298
0.187357536728
0.185336889273
0.183264458297
0.181151398321
0.179004340641
0.176803841624
0.174575875392
0.172150191444
0.17003066474
0.166551976019
0.180258787001
0.208302847149
0.208004510281
0.207311074876
0.20645748457
0.205459803246
0.204341695146
0.203109273752
0.201771686027
0.200332782994
0.198798087598
0.197173161312
0.195466814979
0.193690805605
0.191860090984
0.189990614627
0.188092758988
0.186176801653
0.184215900071
0.182270753498
0.180071538401
0.178437531091
0.174888975623
0.190481409458
0.213760037685
0.213444965014
0.212756162879
0.211929917428
0.210981360986
0.209932132198
0.208787005538
0.207554033558
0.206236274251
0.204838638987
0.203366145966
0.201827011671
0.200232352946
0.198596234315
0.196934323753
0.195255403753
0.193574384258
0.191851400003
0.190193155933
0.188198417833
0.18705710856
0.183382483492
0.200765553948
0.21937938928
0.219051008165
0.218370555976
0.217575148703
0.216679141648
0.215702234448
0.214647921955
0.213523195381
0.212330323433
0.211073595517
0.209757463972
0.20838950959
0.206980182868
0.205542510317
0.204091967026
0.202634826448
0.201192183195
0.199705218614
0.198338989197
0.196531561908
0.19589808582
0.192045852307
0.211206329842
0.225162570102
0.224824037081
0.224155581316
0.223394505134
0.222554505333
0.221653384777
0.220693403759
0.219680516715
0.218616203931
0.217504121626
0.216348136811
0.215155154957
0.213934954457
0.212699372105
0.211463886298
0.210231256506
0.209030788131
0.207778525202
0.20671095089
0.205077074883
0.204977714839
0.200903262398
0.221855005526
0.231110860306
0.230765256768
0.230112482311
0.229389301897
0.228608870842
0.227787105129
0.226925066203
0.226027689125
0.225095665587
0.224132008407
0.22313998539
0.222125790086
0.22109854691
0.220068739569
0.219052157715
0.218046929412
0.217092996151
0.216074745929
0.215314001074
0.213840184724
0.214310754444
0.209960252383
0.232753414381
0.237225112378
0.236875521316
0.236242177275
0.23556052905
0.234843326014
0.234104582341
0.233344191418
0.232566080684
0.231770153101
0.230958769859
0.230134592914
0.229303069943
0.228472716714
0.227652482733
0.226858888665
0.226084186285
0.22538176213
0.224597367229
0.224153557522
0.222826957988
0.223912639448
0.219244956629
0.243933435624
0.243505776125
0.243155320672
0.24254523217
0.241908819139
0.241258590692
0.240606625077
0.239951677357
0.239296674884
0.238640733188
0.23798555571
0.237333200379
0.236688337453
0.236058948411
0.235452244483
0.234886011346
0.234345228898
0.23389994955
0.233349568031
0.233234727138
0.232040297488
0.233797378213
0.228756670014
0.255422654614
0.249952927221
0.249604789472
0.249021865922
0.248434455637
0.247855030759
0.247293682664
0.246748060606
0.246220096409
0.245708121577
0.245213178449
0.244736732017
0.244282644428
0.243858468775
0.243469444201
0.243135277149
0.242832098244
0.242650348399
0.242334355622
0.24256302047
0.241484811648
0.243976484687
0.238513724311
0.267246356138
0.256566285893
0.256223710601
0.255671949778
0.255137372355
0.254632658876
0.25416584793
0.253733520555
0.253336615328
0.252972686597
0.252642114628
0.25234579269
0.252086743074
0.251872229991
0.251705248381
0.251608217155
0.251546610578
0.251635600168
0.251554426429
0.252143763591
0.251164019277
0.254464791104
0.248521376155
0.279425017811
0.263345229599
0.263011516442
0.262495003437
0.262017147675
0.261591128951
0.261222851578
0.260907873688
0.260646140911
0.260434441162
0.260272494106
0.260160652858
0.260101064581
0.260100880805
0.260160530805
0.260306092804
0.260490285297
0.260858113094
0.261012089098
0.261982123804
0.261081599039
0.265273935907
0.258778947174
0.291984660472
0.270288803117
0.269967290779
0.269490192933
0.269073000019
0.268729730793
0.268464056691
0.268270567234
0.268148213834
0.268093033244
0.268104087494
0.268181232488
0.268325698079
0.268544739486
0.268835835072
0.269229851084
0.269664281568
0.270319981141
0.270709152355
0.272082743381
0.271240368949
0.276414447204
0.269293095763
0.304953713387
0.277395726556
0.277089770518
0.276656329073
0.276303784409
0.276047385582
0.275888453073
0.275820673264
0.275841999295
0.275947737088
0.276136294984
0.276407086257
0.276760370955
0.277203769364
0.277731342151
0.27838008841
0.279069351384
0.280022932013
0.280646908605
0.282449804662
0.281643039372
0.287893701143
0.280068677287
0.318361251012
0.284664403367
0.28437734898
0.283991868328
0.283707991062
0.283542643426
0.283494654227
0.283556884268
0.28372628133
0.283997446095
0.284368136706
0.284837391163
0.285404432303
0.286077558841
0.2868468442
0.287757022687
0.288705804344
0.28996828116
0.290826106395
0.293086698459
0.292294399365
0.29971765848
0.291113489235
0.332233929996
0.292092927925
0.29182808011
0.291494915061
0.291283746075
0.29121368318
0.291280896002
0.291477511381
0.291799459926
0.292240668032
0.292798245454
0.293470936706
0.294256840077
0.295165305694
0.296181722966
0.297360472157
0.29857348841
0.300156892948
0.301247021663
0.303994686746
0.303204883435
0.31188155817
0.302441033295
0.346596761381
0.299679092334
0.299439682572
0.299163225296
0.299028814214
0.299058314438
0.299245037962
0.299580485059
0.300059550634
0.300675523458
0.30142486324
0.302306118916
0.303316152361
0.304465806183
0.305734933785
0.307189841974
0.308671794922
0.310589200005
0.311910143319
0.315173945858
0.314389805896
0.32436889359
0.314070058491
0.361474682355
0.307420393231
0.307209545342
0.306994212091
0.30694060404
0.307073982883
0.307384567811
0.307863358969
0.308504188068
0.309299748038
0.310245841148
0.311340937342
0.312580524014
0.31397745017
0.315504991251
0.317244094928
0.318999629788
0.321264741918
0.322816614993
0.326625460474
0.325852561241
0.337175108888
0.326016680107
0.376895525425
0.315314036162
0.315134732176
0.314984952315
0.315016175375
0.315257777721
0.315696608661
0.316323317797
0.317130634215
0.318110700787
0.319258645178
0.32057299528
0.322047707104
0.323698219646
0.325489966233
0.327521805416
0.329555619332
0.332181878138
0.333970965914
0.338344534799
0.337597440584
0.350295788367
0.338295929885
0.39288963222
0.323356936366
0.323211984843
0.323132193737
0.323252249295
0.323606443345
0.324177929558
0.324957187754
0.325935789471
0.327105374902
0.328460365925
0.329999507395
0.331715103389
0.333625753373
0.335687408915
0.338020462691
0.340338625195
0.343341304067
0.345375578462
0.350323511644
0.349628927096
0.363726558086
0.350922697924
0.409489263603
0.331545712387
0.331437723251
0.33143236242
0.33164521976
0.332116393239
0.332824961272
0.333761463372
0.334916232521
0.33628045181
0.337847767963
0.339617206242
0.341579416717
0.343756971391
0.346094876789
0.348739623825
0.351350890861
0.354737505297
0.357026284653
0.362557545878
0.361951984249
0.37746308372
0.363912600608
0.426728833571
0.339876667525
0.33980804258
0.339881574349
0.340191179733
0.340783739795
0.341633791672
0.342732215727
0.344068059469
0.345632058531
0.347417093936
0.349422775664
0.351638499365
0.354090020884
0.356712017277
0.359674800051
0.362586722188
0.366365676221
0.368920744221
0.375042348474
0.374570961445
0.391500552934
0.377282214852
0.444645160889
0.348345720612
0.348318664601
0.348475590916
0.348885848843
0.349604232924
0.350600302496
0.35186564336
0.35338769323
0.355156944815
0.35716555731
0.359413723247
0.361888540662
0.364620511329
0.367533529603
0.37082180155
0.374042453859
0.378221498558
0.381056739967
0.387773205359
0.387489384686
0.405833497171
0.391049139556
0.463277476334
0.356948525799
0.356965229298
0.357210095752
0.357724925408
0.358573599166
0.359720227962
0.361157041608
0.362870034351
0.364849555261
0.36708702773
0.369583329756
0.372323172909
0.375341979584
0.378552832576
0.382173838597
0.385712088927
0.390298504734
0.393430783812
0.400744551659
0.400710286448
0.420455433171
0.405232047615
0.482667290655
0.365680692957
0.365743088332
0.36608027774
0.36670353205
0.367686946413
0.368988741002
0.370601987213
0.372511152863
0.374706501531
0.377178698345
0.379929305557
0.382940772378
0.386253168721
0.389769429144
0.393729554675
0.397595759475
0.402592165889
0.406043104219
0.413946866835
0.414235954388
0.435358965128
0.419851021581
0.502858339671
0.374538911767
0.374648713439
0.37508261321
0.375818097474
0.376940531652
0.378401830028
0.38019613599
0.382306316243
0.384722590044
0.387434880456
0.390445415616
0.393734643027
0.397346870823
0.401176175947
0.405481478192
0.409687877333
0.415095640502
0.418896694527
0.427371568205
0.428079318777
0.450529154404
0.43492849694
0.523896846074
0.383519268674
0.383677142376
0.384211411573
0.385062417991
0.386327787833
0.387952670121
0.389932492291
0.392248430556
0.394890688329
0.397848457119
0.401124570561
0.404697756539
0.408615988255
0.412766063371
0.417422163613
0.421981277267
0.427800304659
0.431984109068
0.441010216142
0.442253423898
0.465940694935
0.450493470192
0.545831399603
0.392617683061
0.392823690978
0.393461607772
0.394431145966
0.395843147563
0.39763552768
0.399805184663
0.402331506275
0.405204701861
0.40841324813
0.411960491113
0.415823768895
0.420053992882
0.424532588563
0.429544666922
0.434469498705
0.440698578154
0.445300237137
0.4548562177
0.456755434783
0.481579412275
0.46658042984
0.568711186731
0.401829780029
0.40208347592
0.402827950703
0.403918739754
0.405480817243
0.407444402704
0.409808024913
0.412549180928
0.415658098042
0.419122559413
0.422946301802
0.42710564203
0.43165358425
0.43646832841
0.441841116375
0.447144809604
0.453782068173
0.45883818504
0.468902995123
0.471583991365
0.497437250906
0.483216740328
0.592582479456
0.411150944237
0.411451402849
0.412304963254
0.413519409712
0.415234718763
0.417372971182
0.419934455382
0.422894673977
0.426243870308
0.429969155704
0.434074511562
0.438535620611
0.443406658291
0.448564864972
0.454302620084
0.459997977791
0.46704136353
0.472588711525
0.483143916857
0.486734572185
0.51350711459
0.50043020053
0.617480011289
0.420576389174
0.420922221417
0.421886999576
0.423227181636
0.425098559804
0.427414659077
0.430177623407
0.433360856968
0.436954599965
0.440945308404
0.445337041303
0.450105230473
0.455304270284
0.460812697868
0.466919128746
0.473018077604
0.4804657911
0.486540002335
0.497572002331
0.502198545417
0.529784515199
0.518247543917
0.643432352103
0.430101212046
0.430490573365
0.431568291156
0.433035941308
0.435065875827
0.437562680262
0.440530411879
0.443940272199
0.447782458528
0.452042775384
0.456725173213
0.461805185892
0.467336485589
0.473201027284
0.479679119395
0.486192104049
0.494042837761
0.500677119107
0.512178882947
0.517961969545
0.546267398847
0.536722268589
0.670376204126
0.439720451084
0.440151046003
0.44134299446
0.442939476112
0.445130066463
0.447810064515
0.450985456416
0.454625134848
0.458719188035
0.463252751198
0.468229459036
0.473625241507
0.479492150132
0.485717426468
0.492569103305
0.499504351075
0.507757154301
0.514980905677
0.526952730542
0.534003304618
0.562953131896
0.555864682228
0.698291417783
0.449429154786
0.449898238843
0.4512052535
0.452931531027
0.455284443626
0.458149695569
0.461535169476
0.465407336828
0.469756077213
0.474565804956
0.47983960296
0.485553999327
0.491758581879
0.498347387852
0.505572917802
0.512935463371
0.521589004818
0.5294260667
0.541874755956
0.55028922671
0.579831187474
0.575685708013
0.727103901773
0.459222473954
0.45972685516
0.461149286452
0.463005886773
0.465522300331
0.468574366266
0.472171777787
0.476278459993
0.480883940428
0.485971810353
0.491544319654
0.497578665265
0.504121169323
0.511073711295
0.518670748727
0.526461045711
0.535511980451
0.543978071004
0.55691380964
0.566767800904
0.596871360724
0.596168707166
0.756660087053
0.469095782354
0.469631822844
0.471169501092
0.473156464622
0.475837003191
0.47907685491
0.482887377231
0.487229800767
0.492093099678
0.497459866853
0.503331165296
0.509684748843
0.516562863481
0.523875704125
0.531837828524
0.540049714364
0.549489781809
0.558588473798
0.572018458522
0.583357756126
0.614005606547
0.617240724845
0.786678173054
0.479044906171
0.479608526362
0.481260719157
0.483377537277
0.486222189432
0.489650102915
0.493674086211
0.498252489771
0.503373456002
0.50901830119
0.515186433336
0.521855802003
0.529063664892
0.536728292433
0.545042901399
0.553660625965
0.563471998058
0.573188262574