/*--------------------------------*- C++ -*----------------------------------*\
| =========                 |                                                 |
| \\      /  F ield         | OpenFOAM: The Open Source CFD Toolbox           |
|  \\    /   O peration     | Version:  2112                                  |
|   \\  /    A nd           | Website:  www.openfoam.com                      |
|    \\/     M anipulation  |                                                 |
\*---------------------------------------------------------------------------*/
FoamFile
{
    version     2.0;
    format      ascii;
    arch        "LSB;label=64;scalar=64";
    class       volScalarField;
    location    "0.0051";
    object      Nu;
}
// * * * * * * * * * * * * * * * * * * * * * * * * * * * * * * * * * * * * * //

dimensions      [0 0 0 0 0 0 0];

internalField   nonuniform List<scalar> 
5589
(
2.01524863962
2.01501199337
2.01445440529
2.0137147389
2.01282002364
2.01180345216
2.01069497348
2.0095178961
2.00829197458
2.00703083128
2.00573796667
2.004402235
2.00296122164
2.001004574
2.00206375533
2.00267716673
2.00287756449
2.00282033199
2.00260779445
2.00223230952
2.00178737395
2.00116505758
2.00047512959
2.00501847364
2.00504479707
2.00510122889
2.0051280206
2.0051144235
2.00504508492
2.00490746211
2.00469766296
2.00441998905
2.00408439172
2.00370238435
2.00328895373
2.00286206541
2.00244445672
2.00205918359
2.00172815095
2.00143287993
2.00121698127
2.00102828434
2.00101619037
2.00099755278
2.00102126312
2.00078074427
2.00656744407
2.00649695732
2.00630711287
2.00603766436
2.00570335389
2.00531996592
2.00490871164
2.00449389445
2.00409367899
2.00372568668
2.00340189704
2.00313047431
2.0029083385
2.00272650578
2.00257077973
2.00243337867
2.00231132613
2.00220232332
2.00211260364
2.00196921779
2.00177208164
2.00143796562
2.0012718833
2.00627574884
2.00622221402
2.00607186583
2.00585964374
2.00559795497
2.0053017609
2.00498356902
2.00465619471
2.00432655364
2.00400083425
2.00368143861
2.00337109771
2.00306997818
2.00278155766
2.00250843066
2.00226324992
2.00204789854
2.00188427944
2.00174876478
2.00166983072
2.00159518495
2.00158922282
2.00162831213
2.00649248444
2.00644049936
2.00629317472
2.00608418977
2.00582273616
2.00552294075
2.00519671239
2.00485771575
2.0045156548
2.00418044654
2.00385853871
2.0035559041
2.00327421806
2.00301597684
2.00278169439
2.00258022887
2.0024165873
2.00229156812
2.00218101651
2.00204711239
2.00186276872
2.00163433694
2.00151899494
2.00666464136
2.00661315117
2.00646701959
2.00626097023
2.00600351447
2.00570970861
2.00539098222
2.00506014113
2.00472569611
2.00439568033
2.00407434243
2.00376556582
2.0034700753
2.00319120402
2.00293101412
2.00269926334
2.00249745745
2.00233258338
2.00218890574
2.00207728577
2.00198008054
2.0019181924
2.00198297732
2.00685027799
2.00680027734
2.00665805336
2.00645792912
2.0062071548
2.00592063047
2.00560865387
2.00528308799
2.00495197515
2.00462323654
2.00430161027
2.00399191934
2.00369636869
2.00341983557
2.0031655324
2.00294273411
2.00275097771
2.00258914789
2.00243340717
2.00227597732
2.00209452751
2.00191040849
2.00187017833
2.00705622398
2.00700753036
2.00686894524
2.00667411179
2.0064291851
2.00614888669
2.0058426501
2.00552168233
2.00519361821
2.00486604875
2.00454360245
2.00423108949
2.00393098569
2.00364833183
2.00338592251
2.0031512538
2.00294216566
2.00276160949
2.00259558924
2.00245238966
2.00232100653
2.00221030564
2.00223603821
2.00727954367
2.00723212335
2.00709716741
2.00690746522
2.00666819857
2.00639378179
2.00609280954
2.0057758717
2.0054502462
2.00512336623
2.00480006785
2.00448559203
2.00418316304
2.00389836891
2.00363418972
2.003396817
2.00318275539
2.00299115983
2.00280696916
2.00263154483
2.00245442708
2.00228873379
2.00227590615
2.00752039019
2.00747422539
2.00734284911
2.00715805878
2.00692414991
2.00665513211
2.00635883031
2.00604530279
2.00572154685
2.00539490284
2.0050704018
2.00475356293
2.00444800181
2.00415927533
2.00388996565
2.00364503313
2.00342129761
2.00321947793
2.00303082933
2.00285960247
2.002699946
2.0025560325
2.00255938024
2.00777873403
2.00773379365
2.00760587457
2.00742571368
2.00719680833
2.00693270149
2.00664052073
2.00632985619
2.00600747993
2.00568069503
2.00535476577
2.00503550423
2.0047269169
2.00443455344
2.00416078668
2.0039095631
2.00367732936
2.00346384942
2.00326084086
2.00307097237
2.0028900007
2.00272391828
2.00271984928
2.0080544966
2.00801075
2.0078861418
2.0077103237
2.00748607446
2.00722642612
2.00693787477
2.00662958852
2.00630815268
2.00598085831
2.00565319317
2.00533119848
2.00501915466
2.00472247454
2.00444335698
2.00418513562
2.00394495218
2.00372325033
2.00351465584
2.00332176757
2.00314171894
2.00297684129
2.00297872435
2.00834763148
2.00830505312
2.00818360644
2.00801186247
2.00779195148
2.00753636317
2.00725101976
2.00694469907
2.00662382335
2.00629568105
2.00596596995
2.00564092263
2.00532505205
2.00502363174
2.0047387681
2.00447325906
2.00422458976
2.00399296245
2.00377410758
2.00356996817
2.00337887636
2.00320351341
2.00321013606
2.00865811086
2.00861668502
2.00849826468
2.00833036344
2.00811452308
2.00786266766
2.00758019217
2.00727550258
2.00695486783
2.00662556897
2.00629349192
2.00596502421
2.00564488081
2.00533821794
2.00504717895
2.00477431306
2.0045178027
2.00427809278
2.00405231289
2.00384198669
2.00364590522
2.00346571541
2.00348038763
2.00898592454
2.00894564984
2.00883014846
2.00866591045
2.0084539385
2.00820557252
2.00792571485
2.00762240654
2.00730176088
2.0069710365
2.00663628192
2.0063040125
2.0059791325
2.00566671691
2.00536901367
2.00508840149
2.00482360837
2.00457509085
2.00434082845
2.00412198618
2.00391791564
2.0037303733
2.00375544031
2.00933107866
2.00929197148
2.00917931923
2.00901862696
2.00881039725
2.00856537005
2.00828797766
2.00798589311
2.00766506135
2.00733269568
2.00699497971
2.00665853796
2.00632846677
2.00600981971
2.00570504294
2.00541650049
2.00514352244
2.00488670046
2.00464474986
2.00441854654
2.00420764632
2.00401373057
2.00405095682
2.00969359248
2.00965568953
2.00954586066
2.00938866531
2.00918413518
2.00894239585
2.00866742082
2.00836650328
2.00804539764
2.00771124188
2.00737032406
2.00702936337
2.00669365523
2.00636828882
2.00605596545
2.00575911136
2.00547758863
2.0052120905
2.00496187294
2.00472761612
2.00450909146
2.00430821842
2.00435968267
2.01007349414
2.01003685404
2.009929871
2.00977619642
2.00957541181
2.00933701462
2.00906452065
2.00876482354
2.00844345642
2.00810744545
2.00776314898
2.00741736908
2.00707561182
2.00674306458
2.00642274328
2.00611722725
2.00582689424
2.00555257827
2.00529397452
2.00505162017
2.00482538422
2.00461746401
2.00468472644
2.01047081546
2.01043551968
2.01033145525
2.01018139997
2.00998449866
2.00974960735
2.00947977628
2.00918147317
2.00885997085
2.00852214044
2.00817437115
2.00782353445
2.00747535663
2.00713518039
2.00680638171
2.00649176077
2.00619217965
2.00590863191
2.00564116933
2.00539024855
2.00515582814
2.00494048201
2.00502518942
2.01088558608
2.01085173925
2.0107507172
2.01060445479
2.01041166827
2.01018055917
2.00991369726
2.00961709198
2.00929570933
2.00895621513
2.00860498311
2.00824893617
2.00789402627
2.00754580419
2.00720804882
2.00688384851
2.00657453998
2.00628131008
2.00600452072
2.00574459511
2.00550154229
2.00527838328
2.00538199366
2.01131782722
2.01128555695
2.01118775146
2.01104552963
2.01085718341
2.01063024754
2.01036679088
2.01007232759
2.00975146335
2.0094106009
2.00905604346
2.00869473926
2.00833286335
2.00797621867
2.00762902468
2.00729472025
2.00697511818
2.00667163525
2.00638492232
2.00611540859
2.00586316642
2.00563170744
2.0057556777
2.01176754541
2.01173700165
2.01164263569
2.01150477406
2.01132128681
2.0110990306
2.0108395496
2.01054782224
2.01022803447
2.00988626039
2.00952866754
2.00916219184
2.00879321757
2.00842783326
2.00807073322
2.00772576901
2.00739524771
2.00708086234
2.00678355249
2.00650379065
2.00624172471
2.00600139454
2.0061471414
2.01223472599
2.01220608001
2.01211542275
2.01198230953
2.01180419052
2.01158723512
2.0113324375
2.01104419827
2.01072621956
2.01038417369
2.01002401574
2.00965261716
2.00927654244
2.00890218486
2.00853474262
2.00817854188
2.00783641763
2.0075103955
2.00720172385
2.00691096082
2.00663834989
2.00638849928
2.00655750726
2.01271932683
2.01269276977
2.01260613309
2.0124782204
2.01230606553
2.01209514416
2.01184587613
2.01156204223
2.01124679392
2.01090532175
2.01054327932
2.01016740388
2.00978439217
2.00940094297
2.00902277947
2.00865476349
2.0083003069
2.00796183615
2.00764094775
2.00733832952
2.00705435203
2.00679422536
2.00698788236
2.01322127252
2.01319701346
2.01311474758
2.01299254543
2.01282703145
2.01262298464
2.01238022949
2.01210188754
2.01179049221
2.01145066689
2.01108766247
2.01070799278
2.01031841553
2.00992591225
2.00953673944
2.00915635224
2.00878880232
2.0084369993
2.00810294907
2.00778752139
2.00749125957
2.00722000764
2.00743988053
2.0137404486
2.01371871235
2.01364120043
2.01352526953
2.01336714598
2.01317091456
2.01293578829
2.01266419539
2.0123579864
2.01202112918
2.01165835971
2.01127585829
2.01088034527
2.01047903255
2.01007869849
2.00968544069
2.00930402442
2.00893794008
2.00858968773
2.00826038288
2.00795080357
2.00766745836
2.00791520583
2.01427669638
2.01425772066
2.01418537257
2.01407631556
2.01392639495
2.0137390096
2.01351275338
2.01324933393
2.01294986076
2.01261755829
2.01225652704
2.01187248302
2.01147198066
2.01106237352
2.01065092153
2.01024439713
2.00984835862
2.00946699069
2.00910339936
2.00875902722
2.00843496688
2.00813842841
2.00841579198
2.01482980846
2.01481384076
2.01474708582
2.01464553712
2.01450468282
2.01432725098
2.01411121839
2.01385755637
2.01356658422
2.01324070065
2.0128832463
2.01249932379
2.01209516098
2.01167812153
2.01125586644
2.01083584685
2.01042448988
2.01002680219
2.00964663867
2.00928587556
2.00894602803
2.0086350556
2.00894391519
2.01539952477
2.01538681865
2.0153260976
2.01523271181
2.01510182369
2.01493551314
2.01473115345
2.01448897713
2.01420847978
2.01389116165
2.01353948163
2.0131577668
2.01275172652
2.01232855443
2.0118961795
2.01146269057
2.01103544131
2.01062039586
2.01022233466
2.00984370752
2.00948659726
2.00915975849
2.00950217598
2.01598552963
2.01597634066
2.01592209664
2.01583753566
2.01571753363
2.01556355261
2.0153723889
2.01514354945
2.01487569149
2.01456936264
2.0142260277
2.01384907025
2.01344346344
2.01301599955
2.01257467678
2.01212811577
2.01168461469
2.01125122545
2.01083386391
2.01043573803
2.01005969348
2.00971534983
2.01009356859
2.01658744992
2.01658203108
2.01653469997
2.01645961897
2.01635142454
2.01621099864
2.01603460064
2.01582104273
2.01556815221
2.01527549412
2.0149434486
2.01457429365
2.01417202964
2.01374276884
2.01329430405
2.01283559356
2.01237582808
2.01192324805
2.01148513982
2.01106570806
2.01066882726
2.01030508905
2.01072156678
2.01720485438
2.01720345108
2.01716345101
2.01709848349
2.01700299978
2.01687734605
2.01671729795
2.01652102223
2.01628555103
2.01600946815
2.01569201031
2.01533421003
2.01493885779
2.01451106435
2.01405806492
2.0135888501
2.01311334232
2.01264100241
2.01218072483
2.01173800797
2.01131811728
2.0109327808
2.01139021706
2.01783725459
2.01784009904
2.01780781938
2.01775356163
2.01767165217
2.0175619509
2.01741981487
2.0172428326
2.017027304
2.01677087011
2.01647160903
2.01612920757
2.01574502963
2.01532284673
2.01486890522
2.01439179661
2.01390186164
2.01340968632
2.01292596686
2.0124578402
2.01201244938
2.01160292015
2.01210427974
2.01848410758
2.0184914126
2.01846720238
2.01842419762
2.0183566647
2.01826402986
2.01814130622
2.01798558707
2.01779253087
2.01755891504
2.01728169796
2.01695917983
2.01659113036
2.01617965646
2.01572953659
2.0152483964
2.01474648465
2.01423521617
2.0137271566
2.01323143161
2.0127576929
2.01232087917
2.01286940934
2.01914482039
2.01915677229
2.01914092798
2.0191096507
2.01905721387
2.01898266336
2.01888074892
2.01874816389
2.01858004072
2.01837241321
2.01812121996
2.01782341174
2.01747707853
2.01708239486
2.01664218553
2.01616243592
2.01565256944
2.01512423721
2.01459169413
2.01406631076
2.01356101022
2.0130931875
2.01369242983
2.01981875713
2.0198355071
2.0198282597
2.01980910051
2.01977237615
2.01971680304
2.0196369498
2.01952921186
2.0193883298
2.01920975025
2.0189885544
2.01872047246
2.01840194402
2.01803105699
2.01760825939
2.01713717413
2.01662545117
2.01608402133
2.01552822252
2.0149716432
2.01443127665
2.01392790647
2.01458165367
2.02050524915
2.02052690228
2.02052840339
2.02052165479
2.02050113748
2.02046528402
2.02040856054
2.02032716687
2.02021559553
2.02006888932
2.01988149019
2.01964813252
2.01936377556
2.01902443858
2.01862792635
2.01817483868
2.01766996617
2.01712216993
2.01654666004
2.01595863269
2.01537971845
2.01483530877
2.01554756532
2.02120360878
2.02123020888
2.02124051493
2.02124635809
2.02124240442
2.02122683979
2.0211940974
2.02114027681
2.0210597648
2.02094739584
2.02079723024
2.0206033171
2.02035945564
2.0200598357
2.01969961423
2.01927593034
2.01878966285
2.01824594925
2.01765792319
2.01704079883
2.01642063379
2.01582862106
2.01660327335
2.02191314856
2.02194465629
2.02196371075
2.02198220473
2.02199502156
2.0220001263
2.02199197456
2.02196664713
2.02191855348
2.02184250901
2.02173246406
2.02158215097
2.02138466304
2.02113284191
2.02081954791
2.02043844031
2.01998575067
2.01946121439
2.01887326539
2.0182342095
2.01757269412
2.0169261571
2.01776712694
2.02263320892
2.02266946442
2.02269707139
2.02272813899
2.02275776961
2.0227837199
2.02280050379
2.02280424547
2.02278947979
2.02275116618
2.0226833978
2.02257997095
2.02243380978
2.02223710049
2.02198115425
2.02165672949
2.02125536069
2.02077019801
2.02020211039
2.01955615528
2.01885892925
2.0181517123
2.01906142921
2.02336319508
2.02340387347
2.0234396867
2.02348312805
2.023529472
2.02357626423
2.02361808998
2.02365115747
2.02367019553
2.02367042857
2.02364629387
2.02359198859
2.02350080461
2.02336508153
2.02317566859
2.02292168378
2.02259096841
2.02217015675
2.02165049132
2.02102488358
2.02031010348
2.01954416942
2.0205293258
2.02410265256
2.02414709375
2.02419047325
2.02424584268
2.0243085236
2.02437583298
2.02444241189
2.02450457122
2.0245572607
2.02459603604
2.024615798
2.02461137807
2.02457686461
2.02450550781
2.02438891672
2.02421636239
2.02397418569
2.02364454745
2.02320935938
2.02264588433
2.021950629
2.02114060515
2.02220471264
2.02485125388
2.02489871372
2.02494925451
2.02501651316
2.02509560209
2.02518357348
2.02527508184
2.02536654601
2.0254531281
2.0255307334
2.02559475759
2.02564076469
2.02566387174
2.02565875737
2.02561882681
2.02553539683
2.02539636937
2.02518373307
2.02487468453
2.02443317355
2.02383116019
2.02304675146
2.02426697085
2.02560966719
2.02565649873
2.02571053508
2.02578628222
2.02587822564
2.0259831534
2.02609565371
2.02621226718
2.0263283197
2.02644005268
2.02654331011
2.0266343642
2.02670937214
2.02676459856
2.02679575446
2.0267974726
2.02676200672
2.02667639313
2.02652194782
2.02625914314
2.02584327039
2.02517396699
2.02662650001
2.02637500756
2.02642960375
2.02650071085
2.02660062944
2.02672212782
2.02686138465
2.02701272015
2.02717265634
2.0273365134
2.02750068915
2.02766120567
2.02781469188
2.02795789394
2.02808814279
2.02820302915
2.02830033709
2.02837771939
2.02843038407
2.02845449578
2.02842557388
2.02834605708
2.02806758186
2.03064645877
2.0271182342
2.02718718
2.02728345611
2.02741542498
2.02757419345
2.02775515131
2.02795234573
2.02816213287
2.02837976607
2.02860166111
2.0288238734
2.02904314166
2.02925641255
2.02946143101
2.02965667125
2.02984147509
2.03001688727
2.0301826579
2.03034921708
2.03049494762
2.03072569621
2.03067476125
2.03500297566
2.02781549855
2.02787473557
2.02796369136
2.02809150292
2.02824970224
2.0284333182
2.0286364755
2.02885543367
2.02908556105
2.02932337493
2.02956511797
2.02980773201
2.03004840437
2.03028511096
2.03051669147
2.03074279657
2.03096597264
2.03118568476
2.03142378595
2.03163800528
2.03204989306
2.03201698467
2.03708031666
2.02851443027
2.02855661555
2.02862597584
2.02873566316
2.02887866168
2.02905005192
2.02924409845
2.02945705177
2.02968438702
2.0299227385
2.03016852631
2.03041889015
2.03067124341
2.03092372379
2.03117540213
2.03142566348
2.03167793542
2.03192799376
2.03220807999
2.03244062249
2.03294117009
2.03290133505
2.03773665524
2.02924883552
2.0292849423
2.02934701238
2.0294508531
2.02959085907
2.02976230115
2.02995965566
2.03017923258
2.0304166235
2.03066857004
2.03093161902
2.03120301983
2.0314802888
2.03176153217
2.03204585836
2.03233189229
2.03262375808
2.03291176272
2.03323767396
2.03349012712
2.03404214086
2.03400644039
2.03850996139
2.03000940055
2.03004450283
2.03010650338
2.03021209028
2.03035669132
2.03053568007
2.03074372404
2.03097717182
2.03123169208
2.03150407679
2.03179092267
2.03208948803
2.0323972825
2.03271222861
2.0330333879
2.03335835628
2.03369209836
2.03401923054
2.03438996126
2.03466804286
2.03526388467
2.03522025746
2.03956675513
2.03078743884
2.03082256286
2.03088703564
2.03099724987
2.03114936517
2.03133871773
2.0315601206
2.03180992307
2.03208383537
2.03237865789
2.03269099224
2.03301805128
2.03335729657
2.03370640072
2.0340644096
2.034427816
2.03480263124
2.03516843029
2.03558250321
2.03589085377
2.03654152274
2.0364781418
2.04082108398
2.03157876063
2.03161392139
2.03168184607
2.03179790226
2.03195882134
2.03215977521
2.03239568282
2.03266286177
2.03295704252
2.03327501213
2.03361335918
2.03396922964
2.03434003712
2.03472318417
2.03511777437
2.03551922444
2.03593469941
2.03633961411
2.03679756741
2.0371384356
2.03786773435
2.0377844772
2.04220814455
2.03238100194
2.03241613788
2.03248807117
2.03261065864
2.03278115359
2.0329944604
2.03324557626
2.03353076097
2.0338457533
2.03418731602
2.03455202109
2.03493694163
2.03533946152
2.03575671151
2.03618792753
2.03662751689
2.03708382998
2.0375286897
2.03803274714
2.03840405956
2.03923883575
2.03909935313
2.04371119964
2.0331924186
2.03322756792
2.03330395311
2.03343356306
2.03361419796
2.03384041222
2.03410726624
2.034410941
2.03474717742
2.03511270894
2.03550409497
2.03591833718
2.03635281586
2.03680439657
2.0372725145
2.03775062986
2.0382483705
2.03873384414
2.03928783313
2.03968478584
2.04065378058
2.04041431104
2.04530896926
2.03401152834
2.03404684216
2.03412810836
2.03426515334
2.03445639821
2.03469598053
2.03497902063
2.03530160387
2.03565947161
2.03604932684
2.03646772516
2.03691160194
2.03737836463
2.0378646226
2.03837007848
2.03888725562
2.03942736209
2.0399536794
2.04056268624
2.04097789926
2.04211059805
2.04172780474
2.0469874355
2.03483697762
2.03487269707
2.03495929387
2.03510416014
2.03530644372
2.03555980865
2.03585944222
2.03620132106
2.03658118925
2.0369957206
2.03744147893
2.03791534053
2.03841477433
2.03893613954
2.03947949359
2.04003633155
2.04062009488
2.04118701269
2.04185725006
2.04228215307
2.04360400975
2.04304104359
2.04874367094
2.03566747491
2.03570390074
2.03579630541
2.03594937374
2.03616310712
2.03643064471
2.03674725683
2.03710880124
2.03751103025
2.03795059155
2.03842407182
2.038928296
2.03946083297
2.0400177881
2.04059970111
2.04119679954
2.04182586352
2.04243274513
2.04317142514
2.04359784303
2.04513539771
2.04435100429
2.05056923858
2.0365017554
2.03653921991
2.03663793371
2.03679958507
2.03702517074
2.03730725547
2.03764121608
2.03802278317
2.03844772595
2.03891267011
2.03941424205
2.03994922212
2.04051532333
2.04110837509
2.04172958795
2.04236749212
2.04304380775
2.04368964268
2.04450453254
2.04492467142
2.04670091057
2.04568900997
2.05245502816
2.03733856318
2.03737740705
2.03748294788
2.03765356255
2.03789139693
2.03818839054
2.03854005645
2.03894199087
2.03938999109
2.03988066556
2.04041069916
2.04097683175
2.04157697305
2.04220662636
2.04286794119
2.04354709767
2.04427286034
2.04495631172
2.04585540293
2.04626235216
2.04829789906
2.04706429287
2.05439576413
2.03817664305
2.03821719697
2.03833009152
2.03851004552
2.03876051847
2.03907277003
2.03944248465
2.03986511697
2.04033650585
2.04085324716
2.0414121052
2.04200977887
2.04264443861
2.04331117382
2.0440134366
2.04473416165
2.04551174449
2.04623120018
2.04722242298
2.04760998254
2.04992044691
2.04846303119
2.05639804239
2.03901473696
2.03905730714
2.03917808415
2.03936774506
2.03963123803
2.03995908256
2.04034717455
2.0407908189
2.04128591149
2.04182903961
2.04241707049
2.04304665509
2.0437163033
2.04442055658
2.04516464227
2.04592710255
2.04675899352
2.04751263597
2.04860365392
2.04896863461
2.05156299484
2.04988199534
2.05846308384
2.03985158362
2.03989644024
2.04002562507
2.04022534801
2.0405022319
2.04084598842
2.04125276988
2.04171772128
2.04223681268
2.04280662532
2.0434241561
2.04408599301
2.0447910819
2.04553322888
2.04632002908
2.04712423268
2.04801297033
2.04879875973
2.0499963352
2.05034018379
2.05322320063
2.05131822503
2.06059138293
2.04068591936
2.04073328764
2.04087139862
2.04108152294
2.0413721561
2.04173212565
2.04215789034
2.04264442218
2.04318778362
2.04378455036
2.04443188019
2.04512627394
2.04586722904
2.04664757
2.04747798504
2.04832379141
2.04927197713
2.05008793172
2.05139801727
2.05172114541
2.05489888084
2.05277206155
2.06278455157
2.04151647875
2.04156653243
2.04171407945
2.04193492693
2.04223965386
2.04261611767
2.04306113977
2.04356950162
2.04413737691
2.04476133328
2.04543872657
2.04616593924
2.04694315032
2.0477618919
2.04863681277
2.04952392923
2.05053399818
2.05137942989
2.05280674036
2.05310579489
2.05658254812
2.05424598247
2.06504512391
2.04234199424
2.04239485219
2.04255233807
2.04278421318
2.04310336439
2.04349658229
2.04396111598
2.04449153274
2.04508413555
2.04573547639
2.04644315218
2.04720340044
2.04801721132
2.0488744515
2.04979481488
2.05072279
2.05179669269
2.05267180155
2.05421984097
2.05449063205
2.05826952916
2.05574055053
2.06737547347
2.04316119293
2.04321692003
2.04338484623
2.04362803936
2.04396193244
2.04437214105
2.04485642023
2.04540909251
2.04602660402
2.04670547631
2.04744360212
2.04823710481
2.04908781385
2.04998339062
2.05094964505
2.05191894978
2.05305807598
2.05396075744
2.05563258762
2.05587553183
2.05995681034
2.05725588949
2.06977744414
2.04397278663
2.04403140203
2.04421028043
2.04446507539
2.04481401817
2.04524143192
2.04574568364
2.04632080224
2.04696338435
2.04766987504
2.04843841323
2.04926515172
2.05015295229
2.05108707205
2.05209898687
2.05310921316
2.05431595878
2.05524294482
2.05704060388
2.05726045707
2.0616413964
2.05879231977
2.07225259704
2.04477545472
2.04483695525
2.04502733195
2.04529402661
2.04565832199
2.04610309326
2.04662744512
2.04722512222
2.04789283371
2.04862698882
2.04942592189
2.05028533726
2.05120997523
2.05218257574
2.05324147444
2.05429125432
2.0555669394
2.05651642004
2.05844074855
2.05864449478
2.06331956677
2.06035038678
2.07480225919
2.04556777447
2.04563217216
2.04583464559
2.04611353043
2.04649348911
2.04695581655
2.0475002279
2.04812030361
2.04881294152
2.04957458362
2.05040397386
2.05129639084
2.05225780524
2.0532685324
2.05437466252
2.05546287463
2.05680825828
2.05777958187
2.05982982156
2.06002612727
2.064986912
2.06193088358
2.07742736354
2.04634841366
2.04641591905
2.04663094291
2.04692200614
2.04731756029
2.04779729003
2.04836160448
2.04900374013
2.04972098093
2.05050976848
2.05136926097
2.05229431152
2.05329234991
2.05434061661
2.05549400975
2.05661999286
2.05803563049
2.05902979224
2.06120407566
2.06140390517
2.06663820958
2.0635349401
2.08012826224
2.04711631475
2.04718682848
2.04741456072
2.04771778312
2.048129054
2.04862632554
2.04921077343
2.049875263
2.05061742249
2.05143364671
2.05232344416
2.05328129513
2.05431608181
2.05540187106
2.0566017346
2.05776594523
2.05924792416
2.06026926857
2.06255684073
2.06277588642
2.06826735118
2.06516456206
2.08290468506
2.0478718893
2.04794524066
2.04818597097
2.0485014162
2.0489283516
2.04944297217
2.05004728625
2.05073381371
2.05150048984
2.0523436721
2.05326320874
2.05425330489
2.05532426102
2.05644737729
2.05769269753
2.05889700247
2.06044099455
2.06150127865
2.06388247702
2.06415171978
2.06986113658
2.06682288632
2.08575580862
2.04861438964
2.04868944372
2.04894273187
2.04926997771
2.04971224165
2.05024386411
2.05086771846
2.0515759716
2.05236683415
2.05323661622
2.05418548105
2.05520740061
2.05631396087
2.0574741845
2.05876366846
2.06000951326
2.06161059483
2.06271926695
2.06517680675
2.06553929383
2.07140061184
2.06851558729
2.08867990037
2.04934298813
2.04941858298
2.04968399317
2.05002260944
2.05047985832
2.051028131
2.0516711757
2.05240078818
2.05321543748
2.05411138095
2.05508907095
2.05614229861
2.05728372935
2.0584807374
2.0598128126
2.06110155261
2.06275454573
2.0639205343
2.06643841212
2.06692868883
2.07288102246
2.07024950937
2.09167337508
2.05005668089
2.05013173105
2.05040884242
2.05075838445
2.05123023397
2.05179475679
2.05245657255
2.05320708643
2.05404501327
2.05496655665
2.05597242775
2.05705630581
2.05823167886
2.05946499052
2.06083783018
2.06217058414
2.06387026562
2.06510158899
2.06766521213
2.06831430234
2.07430103035
2.07202505262
2.09472944363
2.05075443925
2.05082792277
2.05111630507
2.05147629515
2.05196229926
2.05254260248
2.05322268223
2.05399353619
2.05485411047
2.05580055525
2.0568338031
2.057947502
2.05915567402
2.06042458147
2.06183610817
2.06321355399
2.06495479172
2.06625808827
2.068854729
2.06968991218
2.07565927589
2.07384174137
2.09783514925
2.05143530589
2.05150624369
2.0518054467
2.05217537036
2.05267501498
2.0532705502
2.05396828779
2.0547588047
2.05564125898
2.05661174693
2.05767137706
2.05881385095
2.06005342319
2.0613569036
2.06280476869
2.0642269547
2.06600480677
2.06738501231
2.07000420021
2.07104835102
2.07695490324
2.07569424567
2.10097455466
2.05209843181
2.05216587085
2.05247541457
2.05285471605
2.05336741249
2.0539775422
2.05469221797
2.05550158582
2.0564049896
2.05739846811
2.05848325184
2.05965317642
2.06092243132
2.06225903626
2.06374055821
2.06520671614
2.0670164388
2.06847655555
2.07111027959
2.07238146723
2.07818898624
2.07761961226
2.10407602623
2.05274309833
2.05280609921
2.05312546262
2.05351353602
2.05403861022
2.05466259296
2.05539335378
2.05622059894
2.0571438232
2.05815899794
2.05926741173
2.0604631001
2.06175990556
2.06312761535
2.06463964934
2.06614797069
2.0679848656
2.06952571779
2.07216824763
2.07367936509
2.07936134005
2.07960471539
2.10712290781
2.05336874253
2.0534263716
2.05375498012
2.05415115652
2.05468783378
2.05532480395
2.05607063679
2.05691458886
2.05785625932
2.05889153127
2.06002167431
2.06124096304
2.06256263097
2.06395865344
2.06549735705
2.06704467504
2.06890369557
2.07052352911
2.07317068292
2.07492885308
2.08046815558
2.08163995
2.11008195662
2.05397499362
2.05402631851
2.05436353062
2.05476706118
2.05531444598
2.0559633875
2.05672308544
2.05758233186
2.05854076834
2.05959415162
2.06074363568
2.06198373161
2.06332681436
2.06474730047
2.06630775225
2.06788905324
2.06976406955
2.07145780716
2.07410545757
2.07611080478
2.08149752086
2.08370645146
2.11290196931
2.05456172144
2.05460580958
2.05495090132
2.0553609352
2.05591798501
2.05657769725
2.05734981613
2.05822264468
2.0591957843
2.06026480118
2.06143060677
2.06268788434
2.06404789143
2.0654875364
2.06706315799
2.06867082837
2.07055342872
2.07231135501
2.07495298442
2.07719661897
2.08242400285
2.08576816465
2.11550660612
2.05512916777
2.05516508827
2.05551723338
2.05593278783
2.05649827915
2.05716733338
2.05795013747
2.05883446483
2.0598197668
2.06090131662
2.06207961042
2.06334935074
2.06472037082
2.06617186964
2.06775359889
2.06937629447
2.07125395135
2.07305947858
2.07568230647
2.07814249612
2.08319922914
2.08775847413
2.1177762642
2.05567745849
2.05570429973
2.0560625484
2.05648247295
2.05705496343
2.05773165251
2.05852305235
2.05941634124
2.0604106752
2.06150087918
2.06268679429
2.06396286599
2.06533709235
2.0667904349
2.06836562126
2.06998665879
2.07184007819
2.07366611252
2.07624497838
2.07887951849
2.08373521486
2.08955444047
2.11950740153
2.05621383108
2.05623058421
2.05659369707
2.05701648874
2.05759415114
2.05827631284
2.0590736877
2.0599727538
2.06097218474
2.06206612931
2.06325344483
2.06452787152
2.06589499272
2.06733654391
2.06888750423
2.07048252468
2.07228171323
2.0740842697
2.07657129306
2.07930093674
2.08387972124
2.09092535354
2.12033332021
2.05668304708
2.05669124272
2.05705995849
2.05748640856
2.05806973887
2.05875756622
2.05956062867
2.06046453944
2.06146723403
2.0625618569
2.06374581844
2.06501149151
2.06636117843
2.06777587352
2.06928141806
2.07081918802
2.0725223285
2.07423784726
2.07655397848
2.07924681862
2.08338488099
2.09151972437
2.11936179901
2.0569833973
2.05698487148
2.05736367302
2.05779746374
2.05839019779
2.05908683792
2.05989814547
2.06080848471
2.06181474124
2.06290853326
2.06408519103
2.06533470701
2.06665493455
2.06802379645
2.06945611741
2.07089387566
2.07244144748
2.07397384452
2.07598452614
2.07839856306
2.08173341373
2.08993743022
2.11599489964
2.05730116174
2.05729172393
2.05767745369
2.05811404538
2.05871121559
2.05941075526
2.06022345284
2.06113203157
2.06213195261
2.06321267631
2.0643666585
2.06558025547
2.06684541897
2.06813418504
2.06944804272
2.07072214118
2.07202866893
2.07324634715
2.07476436494
2.0766114795
2.07876287439
2.0858910946
2.1111499636
2.05766399701
2.0576411288
2.05802997085
2.05846450514
2.05906049219
2.05975634978
2.06056277045
2.06146050129
2.0624431464
2.06349734852
2.06461179647
2.06576789581
2.066950067
2.06812174951
2.06926853475
2.07031263307
2.07129105818
2.07207374624
2.07294986223
2.07406286347
2.07509629614
2.08099079453
2.10604332684
2.05801556317
2.05797899249
2.05836954303
2.0587995258
2.0593909486
2.06007859405
2.06087288422
2.0617521985
2.06270779282
2.06372278129
2.06478115666
2.06585809569
2.06692900322
2.06794658069
2.06887905024
2.0696330098
2.07021332979
2.07048506353
2.07066114819
2.07109440415
2.0713451059
2.07634082797
2.1011435577
2.05833822207
2.05828775012
2.05867913986
2.05910255125
2.05968644326
2.06036163968
2.0611381025
2.06199141859
2.06290999187
2.06387271133
2.06485802927
2.06583386549
2.06676566422
2.06759449393
2.06827211683
2.068692151
2.06883372161
2.06857736808
2.06813794692
2.06800072724
2.0678822541
2.07240283626
2.09656186887
2.05862999749
2.05856505003
2.05895626725