/*--------------------------------*- C++ -*----------------------------------*\
| =========                 |                                                 |
| \\      /  F ield         | OpenFOAM: The Open Source CFD Toolbox           |
|  \\    /   O peration     | Version:  2112                                  |
|   \\  /    A nd           | Website:  www.openfoam.com                      |
|    \\/     M anipulation  |                                                 |
\*---------------------------------------------------------------------------*/
FoamFile
{
    version     2.0;
    format      ascii;
    arch        "LSB;label=64;scalar=64";
    class       volScalarField;
    location    "0.0051";
    object      p_rgh;
}
// * * * * * * * * * * * * * * * * * * * * * * * * * * * * * * * * * * * * * //

dimensions      [1 -1 -2 0 0 0 0];

internalField   nonuniform List<scalar> 
5589
(
1012676.85812
1012682.70385
1012719.91533
1012768.25156
1012822.29578
1012868.62748
1012903.55448
1012923.12103
1012928.49231
1012922.32276
1012908.66131
1012892.7059
1012879.91634
1012876.51019
1012887.5668
1012917.75347
1012967.01361
1013036.93501
1013115.68662
1013197.36285
1013258.23485
1013300.30193
1013304.69255
1012475.3363
1012459.94328
1012443.98381
1012434.04167
1012432.69581
1012435.29497
1012447.49797
1012470.81425
1012506.20493
1012553.06408
1012610.11967
1012675.59678
1012746.17668
1012818.57651
1012889.13588
1012955.19787
1013013.32737
1013061.41199
1013101.96136
1013133.98857
1013164.02596
1013185.06277
1013201.48591
1011688.81197
1011692.76451
1011726.5173
1011784.13896
1011862.70684
1011951.73389
1012049.17196
1012149.54991
1012249.39333
1012345.1704
1012434.76753
1012517.45832
1012593.59824
1012665.27496
1012735.26122
1012807.48045
1012883.9274
1012966.237
1013050.25539
1013131.59772
1013198.35785
1013249.09606
1013275.92808
1011100.22105
1011113.78725
1011174.43128
1011268.41664
1011389.35399
1011523.31023
1011665.64919
1011809.11946
1011949.91168
1012084.61121
1012211.66643
1012330.54292
1012441.35828
1012544.80575
1012641.58704
1012732.49208
1012817.52063
1012895.74248
1012966.91273
1013028.1987
1013080.25249
1013121.07539
1013154.44321
1010465.1545
1010487.72478
1010574.43194
1010704.62287
1010869.57121
1011052.35107
1011245.57928
1011439.31152
1011627.83249
1011806.04149
1011971.38527
1012122.75987
1012260.70741
1012387.00141
1012504.39191
1012615.79745
1012723.50235
1012827.6024
1012926.13121
1013014.48328
1013088.47631
1013144.82524
1013185.41727
1009807.07196
1009838.60265
1009951.54287
1010117.9097
1010326.67211
1010557.65265
1010800.8019
1011043.70339
1011279.15456
1011500.99057
1011706.33742
1011893.95081
1012064.56266
1012219.7087
1012361.73579
1012492.23892
1012612.60331
1012721.75352
1012819.30202
1012902.4298
1012972.75722
1013029.23864
1013077.384
1009124.87277
1009164.88885
1009303.12194
1009504.409
1009755.76506
1010033.90097
1010326.40199
1010618.54581
1010901.63151
1011168.25414
1011414.92637
1011639.98326
1011844.28927
1012029.58239
1012198.95281
1012354.48785
1012498.49632
1012629.92983
1012748.46662
1012850.21023
1012935.98327
1013002.55118
1013055.45424
1008413.76243
1008461.92751
1008624.77414
1008860.12725
1009153.33434
1009478.06561
1009819.71752
1010161.33961
1010492.75727
1010805.32707
1011094.93596
1011359.43304
1011599.58388
1011816.792
1012013.95119
1012192.36069
1012354.09228
1012497.62947
1012624.08541
1012730.76817
1012821.59979
1012894.82304
1012957.28863
1007670.19087
1007726.2214
1007913.07615
1008181.74679
1008516.16337
1008887.03536
1009277.74573
1009669.19766
1010049.76737
1010409.5369
1010743.68601
1011049.49091
1011327.58166
1011579.16372
1011807.32786
1012013.30199
1012199.60888
1012364.6839
1012510.2421
1012633.17406
1012737.60883
1012820.75046
1012889.7702
1006890.4044
1006954.04824
1007164.3511
1007465.67449
1007840.76094
1008257.44858
1008697.26603
1009139.03328
1009569.6898
1009977.99882
1010358.3407
1010707.28581
1011025.12309
1011312.57448
1011572.5171
1011805.66722
1012014.60387
1012197.77371
1012357.96206
1012492.9427
1012608.3881
1012702.24851
1012782.27312
1006070.51287
1006141.54536
1006374.78289
1006708.17412
1007123.48299
1007585.77149
1008074.85911
1008567.536
1009049.31236
1009507.58755
1009935.86076
1010329.91221
1010689.62196
1011015.25378
1011309.5976
1011573.14351
1011808.77601
1012015.04957
1012195.40677
1012347.70438
1012478.00259
1012584.09696
1012674.04452
1005206.5112
1005284.72757
1005540.42158
1005905.35727
1006360.51092
1006868.27093
1007406.88235
1007951.15291
1008485.16457
1008994.8999
1009472.87916
1009913.97355
1010317.50355
1010683.12971
1011013.37818
1011308.39178
1011571.24137
1011800.67315
1012000.93632
1012170.48615
1012316.19206
1012436.3097
1012539.22024
1004294.26263
1004379.47121
1004657.16671
1005053.16693
1005547.836
1006100.99996
1006689.45604
1007286.07548
1007873.5106
1008436.27533
1008965.82036
1009456.01458
1009905.5282
1010313.39399
1010681.88681
1011010.91374
1011303.78815
1011559.48327
1011782.82248
1011972.59337
1012136.03884
1012271.65946
1012388.07225
1003329.48956
1003421.50536
1003720.75763
1004147.36667
1004681.24713
1005279.78396
1005918.44792
1006568.22144
1007210.32452
1007827.74906
1008410.77978
1008952.17804
1009449.84446
1009902.10221
1010310.88667
1010675.84819
1011000.48812
1011284.05309
1011531.93809
1011743.43301
1011926.24213
1012079.2858
1012211.4034
1002307.76569
1002406.40399
1002726.7645
1003183.53044
1003756.31915
1004400.20752
1005089.45877
1005793.21972
1006491.2773
1007165.05136
1007803.5675
1008398.3831
1008946.52788
1009445.56743
1009897.05985
1010300.43241
1010659.35532
1010973.35954
1011248.29014
1011483.87354
1011688.119
1011860.34382
1012009.57547
1001224.50914
1001329.57909
1001670.58049
1002157.0337
1002768.40262
1003457.60244
1004197.80832
1004956.39322
1005711.71472
1006443.57472
1007139.64687
1007790.18499
1008391.23674
1008939.54185
1009436.20996
1009880.43355
1010276.00019
1010622.73633
1010926.89032
1011188.67341
1011416.38969
1011609.80595
1011778.12267
1000074.97714
1000186.27526
1000547.41563
1001063.04637
1001712.61537
1002447.03734
1003238.5222
1004052.74275
1004866.63848
1005658.35507
1006414.12505
1007122.80107
1007779.33846
1008379.58318
1008924.12828
1009411.91938
1009846.81092
1010228.91812
1010564.82044
1010855.20261
1011108.59989
1011325.24309
1011514.48948
998854.26243
998971.56608
999352.292703
999896.527834
1000583.83604
1001363.30883
1002206.31998
1003076.93067
1003950.68457
1004804.04298
1005621.71286
1006391.04758
1007105.79308
1007760.81953
1008356.11749
1008890.35007
1009367.37515
1009787.58324
1010157.83238
1010479.29114
1010760.69698
1011002.77066
1011215.01376
997557.29189
997680.352763
998080.045359
998652.224346
999376.699996
1000200.93501
1001095.60484
1002023.26572
1002958.10225
1003874.87706
1004756.69465
1005589.31201
1006365.14351
1007077.98951
1007727.13989
1008310.92379
1008833.13141
1009294.40318
1009701.81935
1010057.02824
1010368.93295
1010638.76399
1010876.15624
996178.827567
996307.365136
996725.318927
997324.669168
998085.597957
998954.151415
999900.455541
1000885.68923
1001882.73324
1002864.65501
1003812.89034
1004711.50495
1005551.4527
1006325.35437
1007031.68294
1007668.36076
1008239.0272
1008744.53659
1009192.13747
1009583.95394
1009929.02484
1010229.11268
1010493.97465
994713.47047
994847.165537
995282.574174
995908.185869
996704.677951
997616.910332
998614.62126
999657.763741
1000717.99238
1001766.70519
1002783.61796
1003751.01509
1004658.25551
1005496.65425
1006263.73215
1006956.90975
1007579.57871
1008132.75815
1008623.80647
1009055.31402
1009436.42468
1009769.45448
1010064.27231
993155.667391
993294.155769
993746.094383
994396.89519
995227.851045
996182.884042
997231.5205
998332.665186
999456.850804
1000573.85911
1001661.65455
1002700.65911
1003678.49854
1004585.03924
1005416.69296
1006170.2582
1006848.76406
1007453.33003
1007991.35963
1008465.89519
1008886.15332
1009255.02704
1009582.48489
991499.721023
991642.587443
992109.996106
992784.725912
993648.801509
994645.472867
995744.244862
996903.179778
998091.823102
999278.426325
1000439.19763
1001552.62993
1002604.47762
1003582.99993
1004483.31941
1005301.46412
1006039.9634
1006699.95364
1007288.80827
1007810.00027
1008272.78442
1008680.65407
1009043.66504
989739.803595
989886.575974
990368.243884
991065.430191
991961.002027
992997.818871
994145.568991
995361.707138
996614.960122
997872.17371
999107.828543
1000298.44391
1001427.77037
1002482.28879
1003455.6283
1004342.86662
1005145.8683
1005865.67931
1006509.55258
1007081.36093
1007590.35716
1008040.65784
1008442.39108
987869.974165
988020.118386
988514.669213
989232.603725
990157.734533
991232.82608
992427.967871
993700.271278
995017.849467
996346.311099
997658.479964
998928.888654
1000139.16557
1001273.83468
1002324.80409
1003285.98675
1004158.38337
1004942.81225
1005646.29461
1006273.0598
1006832.31087
1007328.8102
1007772.7416
985884.199752
986037.115126
986542.994011
987279.711123
988232.117252
989343.188097
990583.642787
991910.541284
993291.626053
994691.486307
996081.410438
997433.974163
998728.590934
999947.65052
1001081.09202
1002121.41255
1003068.50904
1003922.79726
1004690.92683
1005377.42235
1005991.37714
1006538.21971
1007028.16625
983776.380397
983931.39603
984446.858784
985200.116813
986177.138473
987321.423946
988604.557211
989983.863607
991426.995398
992897.792764
994366.189676
995802.890748
997185.041874
998492.735245
999713.679427
1000838.66777
1001866.20599
1002796.08556
1003634.40645
1004385.90257
1005059.48042
1005661.25027
1006201.43198
981540.37813
981696.750411
982219.855527
982987.12164
983985.697347
985159.922825
986482.483884
987911.307964
989414.27264
990954.793858
992501.699492
994023.978832
995496.515772
996896.973128
998210.565808
999426.062014
1000540.23576
1001551.9747
1002466.60052
1003288.93572
1004027.59853
1004689.38887
1005284.49188
979170.04979
979326.961254
979855.565373
980634.005175
981650.651948
982850.998164
984209.064041
985683.728644
987243.440199
988851.568289
990476.155984
992084.716939
993649.957626
995147.034559
996558.423224
997870.521225
999077.974628
1000178.41868
1001176.10182
1002075.76574
1002885.6036
1003613.09965
1004268.35417
976659.283509
976815.843318
977347.600803
978134.073643
979164.874526
980386.951294
981775.87944
983291.842936
984904.227251
986576.781424
988277.159959
989971.736498
991631.226121
993228.28606
994742.451723
996157.398834
997465.196901
998661.800564
999750.005027
1000734.23403
1001622.06833
1002421.64955
1003142.92315
974002.038515
974157.284804
974689.652067
975480.713044
976521.313597
977760.144423
979174.537427
980726.32748
982386.213504
984118.787471
985891.783167
987670.873629
989425.091886
991124.720619
992746.237591
994270.270237
995685.824204
996986.659675
998173.632515
999250.517898
1000224.02351
1001102.88603
1001896.79993
971192.387796
971345.292148
971875.537321
972667.446926
973713.062206
974963.082287
976396.768588
977977.933057
979678.958949
981465.766887
983306.698573
985167.270259
987015.283451
988818.924909
990551.628335
992190.718201
993721.640503
995135.365623
996430.197623
997608.806016
998676.658415
999642.967298
1000517.03902
968224.562972
968374.03726
968899.255754
969687.997936
970733.431309
971988.501222
973434.535726
975037.616898
976772.160306
978605.902126
980508.362241
982445.538183
984384.600456
986292.106211
988138.646218
989898.124442
991551.976992
993087.731345
994500.388194
995790.888791
996962.940159
998026.019144
998988.843096
965093.000564
965237.906412
965755.042819
966536.35205
967576.026869
968829.463874
970280.152007
971896.690325
973655.832723
975527.593102
977483.252823
979489.999433
981515.116821
983524.209662
985485.473403
987369.494858
989153.381079
990820.562027
992361.851978
993775.636584
995063.123836
996233.694551
997295.173254
961792.388622
961931.549804
962437.426507
963206.824168
964234.828898
965479.45714
966926.405135
968546.97797
970320.512992
972219.710225
974218.171579
976285.014607
978388.49758
980494.163716
982568.555884
984579.364519
986499.301003
988307.147186
989988.565619
991538.329904
992954.11242
994244.599542
995416.247468
958317.712441
958449.930629
958941.283425
959694.123532
960704.27035
961932.490407
963366.68344
964980.983017
966757.47761
968671.878602
970700.599927
972815.405456
974986.451889
977180.295981
979362.888631
981499.853511
983559.846492
985516.725079
987350.07512
989049.794532
990608.601991
992033.519954
993328.865865
954664.297827
954788.37234
955261.893384
955993.417342
956979.313654
958183.190858
959595.099076
961192.051536
962958.966205
964874.78204
966919.104182
969066.968739
971291.336785
973560.963646
975842.559224
978100.977848
980301.732709
982413.99503
984410.624862
986275.297605
987993.934265
989570.376391
991005.529508
950827.849994
950942.602666
951394.991078
952100.390814
953055.522372
954226.8921
955606.602608
957174.527061
958918.397167
960820.468663
962863.765687
965027.061888
967286.907076
969615.426828
971981.629692
974351.348233
976688.568986
978958.818256
981128.235228
983173.151655
985070.505868
986818.702348
988413.10841
946804.485601
946908.792883
947336.813817
948011.302573
948929.126609
950059.713971
951397.085282
952923.888854
954630.564064
956502.639672
958526.609918
960685.229805
962959.1895
965324.977528
967755.438283
970219.435413
972681.762285
975106.407669
977453.963222
979693.112778
981789.680117
983733.582691
985511.2192
942590.754601
942683.589989
943084.142441
943723.031091
944597.075831
945678.624408
946963.455896
948436.854681
950091.784245
951916.878246
953901.971371
956033.786216
958297.377484
960674.228768
963142.282852
965675.480946
968242.263492
970808.336131
973331.618729
975774.570562
978090.76275
980258.120577
982248.781613
938183.646754
938264.143088
938634.342839
939233.125707
940057.099654
941081.511809
942303.729378
943711.494171
945300.053749
947060.877779
948986.853095
951068.402015
953294.793607
955652.629955
958125.638645
960694.411064
963333.852363
966015.455107
968699.306069
971345.887344
973898.169903
976319.712875
978561.78662
933580.578199
933648.105677
933985.362903
934539.783884
935307.659907
936267.107103
937416.915304
938747.081102
940254.865031
941934.236923
943780.733995
945788.004112
947949.031497
950255.095893
952695.586437
955258.319613
957926.609457
960681.62929
963491.857242
966323.473804
969115.601775
971819.258468
974358.262582
928779.326999
928833.69992
929135.927882
929642.175992
930348.417983
931235.607435
932303.815448
933545.083564
934958.413489
936539.914425
938287.324245
940196.927412
942264.688161
944485.654903
946853.920487
949363.762346
952007.055461
954776.744002
957655.330593
960624.780788
963634.274701
966635.518603
969530.835232
923778.029921
923819.350844
924084.567053
924538.753327
925177.740071
925985.296463
926962.669385
928103.734943
929408.98146
930876.300288
932505.188383
934293.96127
936240.753294
938343.237527
940598.672876
943005.796067
945562.906387
948273.274942
951134.802287
954152.886417
957303.259244
960565.752057
963835.099526
918574.302463
918605.716563
918835.443995
919237.260923
919807.281681
920532.047097
921413.946901
922448.483553
923637.433154
924980.144783
926477.498957
928129.30636
929935.150383
931894.246598
934005.412045
936269.351847
938687.077817
941267.122972
944016.885613
946963.684726
950117.267258
953536.195771
957189.831987
913164.448155
913204.859944
913414.120012
913775.237015
914285.661415
914935.040263
915727.084684
916658.905648
917733.535864
918951.625344
920315.27168
921825.515034
923483.029472
925287.976353
927239.693593
929339.028895
931586.193527
933989.066527
936551.711637
939308.4141
942251.878254
945567.73224
948913.79322
907535.901222
907612.760286
907829.136379
908176.203722
908652.793157
909251.91753
909978.610421
910831.633159
911815.182941
912931.084777
914182.45641
915571.331759
917099.224445
918766.990429
920574.22517
922521.626453
924607.775538
926839.19581
929210.028908
931763.971579
934410.672283
937559.78395
939959.968205
901654.652518
901777.230218
902011.276006
902354.366265
902806.251484
903363.34284
904032.00479
904812.678035
905710.697654
906729.008384
907871.657178
909141.551976
910540.915346
912071.189753
913732.125173
915524.419124
917444.683255
919500.108389
921669.155272
924026.304126
926334.401311
929388.822472
930802.194957
895497.64225
895667.259889
895921.186629
896262.134931
896690.233238
897205.178592
897814.597128
898520.569942
899329.512126
900245.414544
901273.167767
902416.459846
903678.134019
905060.190121
906562.492746
908186.171348
909925.445913
911792.052442
913741.240077
915909.003951
917851.748562
920875.956867
921424.310721
889048.467866
889263.050103
889534.655504
889870.733218
890271.423922
890739.596906
891284.054244
891908.469484
892620.283833
893424.478285
894326.730684
895331.460244
896442.091312
897661.231547
898988.831494
900427.112369
901967.024894
903629.952275
905337.675764
907319.788969
908874.481384
911893.232688
911680.391715
882296.043753
882552.791619
882838.456165
883165.350917
883533.43887
883948.691593
884421.014838
884955.636112
885560.981088
886242.982604
887008.069798
887861.371653
888806.870769
889847.877035
890984.329938
892220.37658
893542.197355
894986.72443
896430.19367
898224.893397
899371.520053
902377.336765
901473.699926
875231.542265
875527.457014
875822.939186
876135.581295
876465.098206
876820.537592
877212.854611
877648.801819
878137.755447
878686.571265
879302.401589
879991.075657
880757.10463
881604.621511
882533.346087
883550.344568
884634.936009
885845.925609
887001.576082
888600.587395
889322.359507
892287.066399
890736.461298
867847.505943
868179.408483
868480.032467
868772.82251
869057.24677
869345.437605
869649.361664
869977.275574
870339.476837
870743.719915
871197.852931
871708.401245
872280.35628
872918.819206
873622.956605
874403.896832
875231.562585
876192.975025
877036.897451
878425.653868
878705.262334
881591.087026
879413.033976
860137.667119
860502.151302
860802.871175
861069.781816
861302.144967
861515.211257
861721.934037
861932.059854
862156.781153
862404.729149
862684.417551
863003.066888
863366.075747
863779.684552
864242.05161
864769.634625
865320.174488
866014.903338
866523.493309
867682.879588
867508.919995
870266.112723
867454.721962
852096.91619
852490.298454
852785.721628
853020.352124
853193.303024
853322.993293
853423.347745
853505.59426
853581.795561
853661.439078
853753.668875
853866.402362
854005.344025
854178.071631
854381.171718
854637.776658
854890.59602
855300.363738
855450.328769
856356.566412
855714.047662
858298.260975
854840.621684
843721.321049
844139.60075
844423.995728
844619.603729
844725.451392
844763.185935
844747.694377
844691.681621
844608.056726
844507.143844
844398.675902
844291.271816
844190.811201
844106.43307
844032.500065
844000.188664
843934.437622
844039.893361
843808.6463
844435.967865
843314.780056
845675.815218
841548.164529
835008.174626
835447.010684
835714.313419
835863.839504
835894.5885
835831.50072
835690.419188
835485.524658
835230.548646
834936.633457
834614.05239
834272.134259
833916.774036
833558.91786
833189.986995
832850.536818
832445.220435
832225.972548
831591.228113
831911.159447
830297.89466
832391.831036
827575.941302
825956.055811
826410.76028
826654.586059
826750.679195
826698.065176
826525.043717
826248.408377
825883.817141
825445.799456
824946.298429
824396.072143
823805.17242
823179.322843
822531.53955
821849.544421
821184.523761
820418.635702
819853.455841
818793.260617
818776.227416
816657.380495
818440.202604
812924.571532
816564.894042
817030.440821
817244.104512
817279.152441
817134.681202
816842.415939
816420.094455
815884.855204
815252.00024
814534.257869
813742.808469
812888.446005
811976.512336
811022.368289
810009.261702
809000.146362
807852.816642
806919.897801
805412.504829
805028.006596
802387.507187
803815.539613
797597.223473
806836.032009
807307.078617
807483.623832
807449.789931
807204.781941
806783.81532
806205.56398
805488.65202
804649.127799
803700.491793
802654.278048
801522.04884
800308.535119
799031.724609
797669.620288
796297.949557
794748.616595
793425.922108
791449.952033
790667.630272
787489.624875
788518.599337
781594.042816
796772.282523
797243.203112
797375.440161
797264.707395
796910.348476
796351.132867
795606.660007
794697.047144
793639.062014
792446.967764
791132.578495
789708.259319
788177.886895
786562.362964
784833.693942
783081.257703
781109.854969
779375.461119
776910.028928
775699.484037
771970.690259
772555.082759
764920.800362
786377.976635
786842.90444
786923.456555
786727.678626
786255.076873
785548.037801
784627.073502
783513.804784
782225.691782
780777.755763
779182.013236
777451.676563
775589.515759
773619.637266
771507.327728
769356.377073
766943.552415
764775.965975
761801.537006
760128.38164
755842.963504
755939.617649
747590.201932
775659.001514
776111.879283
776133.235971
775844.194851
775244.443419
774380.048549
773272.419897
771944.696514
770415.00483
768699.125899
766809.198356
764759.336963
762550.949738
760211.642511
757699.289753
755132.755053
752260.137453
749638.459864
746139.10662
743962.235776
739120.120289
738694.509354
729622.792025
764622.826384
765057.463205
765012.039431
764621.508193
763885.753081
762854.586232
761550.297567
759997.564934
758215.15727
756219.624931
754023.14717
751640.806376
749072.398087
746349.328118
743421.391964
740423.081925
737073.551169
733976.799006
729940.738365
727219.921481
721820.843783
720842.750518
711045.406044
753278.516029
753688.648544
753568.84783
753068.657361
752188.169107
750981.008297
749470.325186
747682.364562
745636.518887
743350.127609
740835.328655
738108.241581
735166.820017
732046.581754
728688.607029
725243.394088
721402.090251
717807.370268
713227.30194
709928.181739
703970.649398
702411.418815
691890.461911
741636.732583
742016.08824
741814.366858
741196.474003
740162.721829
738770.620245
737044.15506
735011.176593
732691.690048
730103.857954
727259.69983
724176.423704
720849.963104
717320.268918
713519.007393
709612.807138
705268.213232
701151.695646
696023.167078
692118.337909
685600.607287
683433.405043
672196.483951
729709.726884
730052.085399
729761.014155
729017.568271
727822.294469
726236.664232
724285.463597
721998.199166
719395.492999
716496.382515
713312.698712
709862.675
706140.253995
702190.319695
697935.048801
693553.00195
688696.509111
684038.821375
678358.217336
673824.524364
666746.353179
663947.29843
652008.167215
717511.324631
717810.571689
717422.89021
716546.294392
715181.586496
713394.278929
711209.892168
708659.66641
705764.86563
702545.505137
699013.37245
695187.47882
691059.551674
686678.935745
681961.00306
677091.245178
671716.365793
666501.487704
660266.600464
655084.844613
647448.139572
643997.136881
631376.064748
705056.911064
705307.070505
704815.722332
703798.673293
702257.031414
700260.475785
697835.184554
695014.117723
691819.290222
688271.64048
684382.929276
680173.35582
675632.404747
670812.581349
665625.01224
660257.884709
654360.695125
648576.027974
641786.519239
635941.809296
627750.957947
623632.282018
610356.249064
692363.478242
692558.721084
691956.893319
690792.480727
689066.871686
686853.943156
684180.725022
681081.888608
677580.12635
673697.320997
669445.22077
664845.263118
659885.353181
654619.743248
648958.002665
643086.123482
636665.596718
630302.044041
622960.487036
616442.332087
607704.556983
602907.26226
589009.942467
679449.281666
679583.711641
678865.015238
677546.880163
675631.026825
673195.472084
670268.21912
666885.710217
663071.288159
658847.80178
654227.083161
649231.632309
643848.590673
638132.521169
631994.408313
625612.738481
618670.183925
611722.062069
603834.218852
596636.720274
587363.816443
581881.578984
567403.046888
666333.323399
666401.479751
665560.235613
664082.804101
661971.313314
659307.844163
656121.465955
652450.435604
648318.803586
643750.411984
638757.345437
633362.93059
627554.374106
621385.211496
614770.663844
607877.039495
600415.829595
592881.50838
584455.184317
576578.309394
566787.253205
560618.864994
545605.293389
653034.896682
653032.250359
652063.724283
650422.339783
648110.784422
645215.153757
641765.687897
637802.498183
633350.448911
628434.414048
623066.944187
617271.960075
611037.525995
604414.995584
597326.213109
589921.759239
581947.260953
573830.070678
564873.707499
556323.381084
546033.678692
539185.415453
523689.039165
639574.256586
639497.339554
638397.854756
636588.878269
634073.882505
630942.95065
627227.623464
622969.914703
618195.640169
612930.758353
607188.531657
600993.281172
594334.662988
587260.948884
579702.4709
571791.771227
563311.673457
554620.028854
545143.902523
535932.761753
525163.676807
517649.992371
501728.736906
625972.551327
625818.877468
624585.797671
622606.634871
619885.916534
616517.704872
612534.997281
607981.770518
602884.953171
597271.656538
591156.118014
584562.925088
577483.966999
569963.834025
561942.626681
553533.787967
544558.261713
535305.587393
525322.35884
515470.409572
504241.707991
496083.889221
479801.239487
612251.721452
612019.751191
610651.496264
608500.641618
605573.065962
601966.816889
597716.528909
592868.217184
587450.104236
581490.541744
575005.012851
568018.31343
560525.095048
552565.989088
544091.566746
535196.279542
525738.253295
515942.945161
505468.217338
495002.902918
483335.813519
474562.613484
457986.807292
598434.332635
598123.447822
596619.501761
594296.569152
591162.189303
587318.414161
582801.716894
577660.243012
571923.70772
565621.814377
558771.562991
551397.985511
543498.908402
535111.042616
526195.611088
516829.181961
506904.642903
496589.935937
485642.790035
474598.720549
462516.885115
453165.608367
436374.245673
584543.388568
584153.872089
582514.78328
580020.524712
576680.610021
572601.125688
567820.603301
562389.428187
556339.023245
549700.582598
542492.892069
534741.336017
526447.220726
517643.660408
508302.285213
498483.66243
488111.970488
477305.761726
465909.241689
454327.597238
441857.563301
431975.705675
415048.529952
570602.133733
570135.150952
568362.527333
565698.842823
562155.897961
557843.854678
552803.538282
547087.702604
540729.709249
533762.413846
526206.656182
518088.377026
509412.580562
500209.346946
490460.162051
480212.005329
469416.258451
458151.005615
446332.665549
434260.66997
421432.53051
411077.680121
394087.702869
556633.846064
556091.425337
554187.924911
551357.8656
547615.641966
543075.543997
537780.939697
531787.101387
525129.5778
517843.092623
509950.812504
501479.52418
492438.091736
482854.314194
472718.804316
462067.669664
450875.204647
439188.07617
426980.7914
414471.62913
401320.419839
390559.304936
373578.14199
542661.617692
542046.627331
540015.943925
537023.70946
533087.211143
528324.932465
522783.046004
516519.516878
509572.349835
501978.384305
493763.402374
484955.411141
475567.281617
465625.43478
455128.841221
444105.577119
432548.733394
420482.245456
407925.607947
395039.372508
381608.220751
370519.054143
353618.984448
528708.118578
528024.23808
525871.083066
522722.015497
518597.501713
513620.299099
507839.659972
501316.444649
494091.408808
486203.803898
477682.348315
468556.734258
458844.022527
448570.291087
437742.203757
426382.671858
414499.987381
402103.399262
389246.048489
376052.125466
362396.819535
351072.880014
334330.668582
514795.343702
514047.02787
511777.109463
508477.686142
504172.673049
498989.1997
492979.887651
486208.728819
478719.55851
470554.39569
461745.270847
452324.131594
442312.510208
431737.32407
420612.529363
408958.773481
396796.814846
384128.611362
371031.99539
357613.683736
343809.902192
332366.261026
315872.057158
500944.243837
500136.676877
497756.679325
494314.508295
489837.772256
484458.094446
478231.770835
471226.202521
463488.677634
455064.411988
445989.207342
436297.971303
426017.163968
415175.932114
403795.573776
391897.556698
379513.621305
366645.537151
353389.944227
339852.906298
326008.880223
314596.802834
298474.367456
487175.237752
486314.26422
483831.830613
480255.658275
475617.250518
470052.88092
463622.839898
456398.267381
448430.334023
439767.974258
430451.337262
420519.171008
410003.580752
398937.650382
387350.729066
375268.699958
362734.522869
349757.509306
336451.229196
322938.029635
309216.90314
298056.847407
282512.35146
473498.022027
472590.206278
470014.042061
466313.858651
461525.165873
455789.118329
449170.323798
441744.06164
433565.880936
424689.072027
415158.854648
405018.931392
394308.107601
383065.627676
371330.47378
359137.801755
346544.347308
333577.774737
320371.342741
307088.163864
293745.532571
283207.895444
268629.196801
459683.34193
458742.153521
456089.627258
452283.671438
447364.363918
441477.941105
434693.816281
427091.938103
418732.90459
409675.204286
399970.125414
389667.775675
378815.255804
367460.782073
355655.75925
343450.45107
330920.646765
318124.75355
305225.368756
292462.936969
279885.87411
270564.787376
258294.116544
445776.46476
444815.123055
442101.411346
438208.031378
433178.922193
427166.030621
420243.866581
412497.723595
403993.983437
394797.368251
384966.47584
374559.61495
363634.310616
352251.068649
340477.617371
328385.462775
316077.172431
303653.604422
291321.272433
279431.466894
268047.084999
260403.51321
251251.451752
432006.111078
431029.375427
428263.332476
424295.560141
419173.490662
413055.141804
406020.419633
398160.570199
389548.512265
380256.266867
370351.08658
359901.370961
348977.410595
337655.329259
326023.238406
314179.303376
302259.518842
290413.894517
278894.239778
268150.09855
258205.56301
252108.476904
245410.592398
418396.347345
417407.810447
414598.395849
410569.602546
405372.14907
399170.396673
392049.989682
384108.749644
375426.93837
366084.992543
356160.231543
345733.038542
334888.745021
323722.000049
312344.380272
300883.625733
289510.071362
278417.391822
267880.350719
258394.059852
249865.937736
244932.085887
239832.948807
404974.25479
403976.904635
401133.040599
397056.817325
391802.090132
385539.798672
378361.678357
370372.752794
361661.439839
352317.686619
342430.216158
332093.04735
321408.308678
310490.894407
299476.570357
288520.875948
277820.999703
267597.692799
258117.510454
249848.014661
242550.006209
238444.821831
234367.401988
391761.149305
390757.816795