/*--------------------------------*- C++ -*----------------------------------*\
| =========                 |                                                 |
| \\      /  F ield         | OpenFOAM: The Open Source CFD Toolbox           |
|  \\    /   O peration     | Version:  2112                                  |
|   \\  /    A nd           | Website:  www.openfoam.com                      |
|    \\/     M anipulation  |                                                 |
\*---------------------------------------------------------------------------*/
FoamFile
{
    version     2.0;
    format      ascii;
    arch        "LSB;label=64;scalar=64";
    class       surfaceScalarField;
    location    "0.0051";
    object      phi;
}
// * * * * * * * * * * * * * * * * * * * * * * * * * * * * * * * * * * * * * //

dimensions      [0 3 -1 0 0 0 0];

oriented        oriented;

internalField   nonuniform List<scalar> 
10912
(
1.89936286332e-08
1.1401023533e-06
7.16851365963e-08
3.19884222848e-06
1.48570482742e-07
4.86617694217e-06
2.39888672087e-07
6.13869008483e-06
3.35686852182e-07
7.02785057075e-06
4.28305667681e-07
7.5739511543e-06
5.11370488356e-07
7.82098729509e-06
5.80237554622e-07
7.82048322378e-06
6.31863046553e-07
7.62200070452e-06
6.64795678297e-07
7.27270635506e-06
6.78955246499e-07
6.81387569714e-06
6.75306683709e-07
6.28046503801e-06
6.56235838088e-07
5.70035795499e-06
6.25332938402e-07
5.09407002835e-06
5.87398863788e-07
4.47511916593e-06
5.46773333562e-07
3.85103499749e-06
5.0920087945e-07
3.22488699833e-06
4.77459223596e-07
2.59907563039e-06
4.50743865994e-07
1.9789981615e-06
4.15417717451e-07
1.38291484268e-06
3.4956508704e-07
8.34693643004e-07
2.12514897034e-07
3.67241607818e-07
-4.22586370037e-08
1.95882664459e-08
1.12092784431e-06
7.39779728284e-08
3.14562004807e-06
1.53630797876e-07
4.78831917036e-06
2.48707995924e-07
6.04587147399e-06
3.49147752253e-07
6.92994737759e-06
4.46754413771e-07
7.47896530603e-06
5.34560619314e-07
7.73570103457e-06
6.07355921234e-07
7.74995356451e-06
6.61569501593e-07
7.56969746173e-06
6.9535546404e-07
7.24043186835e-06
7.08583277537e-07
6.80176673256e-06
7.02814560686e-07
6.28700316141e-06
6.8163419125e-07
5.72202418687e-06
6.50408183651e-07
5.12557138362e-06
6.15959620671e-07
4.50970195688e-06
5.85137976703e-07
3.88190505191e-06
5.63144010019e-07
3.24688397363e-06
5.48527049262e-07
2.61367888384e-06
5.29067072609e-07
1.99844159455e-06
4.80033146464e-07
1.43193230215e-06
3.71005800172e-07
9.43701390753e-07
1.89931840735e-07
5.4828793547e-07
1.47646313714e-07
1.96890135902e-08
1.10184532592e-06
7.43215952332e-08
3.09265057873e-06
1.54384517498e-07
4.71062858302e-06
2.49967391541e-07
5.95301081771e-06
3.51033381881e-07
6.83163279798e-06
4.49330725886e-07
7.38320949215e-06
5.37975312054e-07
7.64924633499e-06
6.11989487245e-07
7.67772712346e-06
6.6817083256e-07
7.51491501853e-06
7.05118448851e-07
7.2045479941e-06
7.23139469597e-07
6.78454424069e-06
7.24090703864e-07
6.286655534e-06
7.11333039206e-07
5.73524903532e-06
6.89148403797e-07
5.14812987136e-06
6.62058082816e-07
4.5371006686e-06
6.33115336458e-07
3.91110602203e-06
6.01996388942e-07
3.27821698642e-06
5.62104966269e-07
2.65374307195e-06
5.0049480797e-07
2.060188293e-06
4.04358792614e-07
1.52817617959e-06
2.74058702033e-07
1.07408838822e-06
1.35140598779e-07
6.8727492944e-07
2.82834893214e-07
1.95469225247e-08
1.08281938915e-06
7.38036194751e-08
3.03983134505e-06
1.53459205111e-07
4.63305253187e-06
2.48774016939e-07
5.86013367025e-06
3.49950483416e-07
6.73299398795e-06
4.48815839379e-07
7.2867827713e-06
5.38569695509e-07
7.56169787043e-06
6.14270140107e-07
7.60392685079e-06
6.72721462965e-07
7.45803324217e-06
7.12491936846e-07
7.16602542276e-06
7.33830295719e-07
6.76416157675e-06
7.38554585937e-07
6.28263582335e-06
7.29893652515e-07
5.74440839884e-06
7.11888444379e-07
5.16647191859e-06
6.88503034892e-07
4.5607022699e-06
6.62014446243e-07
3.93772596116e-06
6.30756444938e-07
3.30955023843e-06
5.87722543635e-07
2.69681964883e-06
5.22495967496e-07
2.1254396282e-06
4.28461415354e-07
1.62222620997e-06
3.09932566412e-07
1.19262487993e-06
1.74736964704e-07
8.22472632649e-07
4.57565258245e-07
1.93466784699e-08
1.06401661878e-06
7.3063510634e-08
2.98761730462e-06
1.520364707e-07
4.55626102693e-06
2.46701294855e-07
5.76803744452e-06
3.47487467025e-07
6.63489327176e-06
4.46320523019e-07
7.19053933017e-06
5.36521136832e-07
7.47384391504e-06
6.13253190847e-07
7.52921816882e-06
6.73443202542e-07
7.39951572028e-06
7.15781687856e-07
7.12502102686e-06
7.40588980262e-07
6.74038626884e-06
7.49612255048e-07
6.27439072281e-06
7.45626176858e-07
5.74896848741e-06
7.31646362827e-07
5.180866956e-06
7.09856936775e-07
4.58278607198e-06
6.80100043237e-07
3.96768741092e-06
6.38414855972e-07
3.35137486911e-06
5.77860126479e-07
2.75746966093e-06
4.92129849804e-07
2.2112379383e-06
3.82312856813e-07
1.73209612682e-06
2.56992112218e-07
1.31798927984e-06
1.28179184802e-07
9.51323231296e-07
5.85773911445e-07
1.90722454103e-08
1.04549898987e-06
7.20411017828e-08
2.93618208953e-06
1.5000453667e-07
4.48052873897e-06
2.43606719228e-07
5.6770719373e-06
3.43536075053e-07
6.53773438442e-06
4.41873593193e-07
7.09489202342e-06
5.32105549044e-07
7.38607193919e-06
6.09520945778e-07
7.45394799661e-06
6.71140738995e-07
7.33969303577e-06
7.15691227697e-07
7.0819249027e-06
7.43427878441e-07
6.71378969778e-06
7.55880686346e-07
6.2628046815e-06
7.55357368184e-07
5.75012966226e-06
7.44179120323e-07
5.19249784971e-06
7.23641260124e-07
4.60363167148e-06
6.92882729567e-07
3.9986458294e-06
6.48147788208e-07
3.39623409512e-06
5.84447941649e-07
2.82124587587e-06
4.98946745934e-07
2.29678685525e-06
3.94286755085e-07
1.83678783093e-06
2.76210881445e-07
1.43608536125e-06
1.48287382068e-07
1.07925944787e-06
7.34066140286e-07
1.87401286185e-08
1.02732559093e-06
7.07996273053e-08
2.88569148778e-06
1.47502257088e-07
4.40611571131e-06
2.39725172583e-07
5.58756757517e-06
3.38432066965e-07
6.44190137277e-06
4.35890757721e-07
7.00024501898e-06
5.25771702711e-07
7.29878469892e-06
6.03499899866e-07
7.37850416654e-06
6.6618891527e-07
7.27893892125e-06
7.12585511552e-07
7.0371134067e-06
7.4284757769e-07
6.68478724664e-06
7.58218975917e-07
6.24840588191e-06
7.60433508203e-07
5.74864396682e-06
7.50941638616e-07
5.20251833347e-06
7.29922265997e-07
4.6250201149e-06
6.9556832556e-07
4.03324725053e-06
6.44137257624e-07
3.44782473006e-06
5.72253457918e-07
2.89323071142e-06
4.79702658694e-07
2.38940193884e-06
3.71208993145e-07
1.94532464029e-06
2.52951009104e-07
1.55437313543e-06
1.30204909167e-07
1.2020274725e-06
8.64286096517e-07
1.83636700924e-08
1.00954335782e-06
6.93884822536e-08
2.83627791632e-06
1.44632934013e-07
4.33322971549e-06
2.35223248711e-07
5.49979004933e-06
3.3240763075e-07
6.34770757961e-06
4.28664341668e-07
6.90693501764e-06
5.17860655425e-07
7.21232954852e-06
5.95562237609e-07
7.30324027066e-06
6.58964021098e-07
7.21762460434e-06
7.06803629674e-07
6.99100460903e-06
7.3910123368e-07
6.65388284344e-06
7.5679119745e-07
6.23180586672e-06
7.61103639408e-07
5.74515893665e-06
7.52873887576e-07
5.2113560097e-06
7.31730844226e-07
4.64659398205e-06
6.9580682188e-07
4.06946635071e-06
6.42203794523e-07
3.50162446374e-06
5.69240453022e-07
2.9663243619e-06
4.78010752777e-07
2.48071816174e-06
3.72785689824e-07
2.05060803401e-06
2.57728979656e-07
1.66946808377e-06
1.35369391528e-07
1.32441113842e-06
9.99668496083e-07
1.79538667127e-08
9.92187732291e-07
6.78490999024e-08
2.78804209881e-06
1.41484625063e-07
4.26203039872e-06
2.30245821715e-07
5.41394711519e-06
3.25668807164e-07
6.25540494066e-06
4.20457164822e-07
6.81524272244e-06
5.08679596058e-07
7.12701090062e-06
5.86040803931e-07
7.22848560009e-06
6.49805763281e-07
7.15611517741e-06
6.98682805936e-07
6.94401934673e-06
7.32530335803e-07
6.62157723711e-06
7.51955468611e-07
6.21360347633e-06
7.57693166069e-07
5.74036347279e-06
7.49996342622e-07
5.21975718162e-06
7.28003692907e-07
4.66909640292e-06
6.89792967254e-07
4.1080351909e-06
6.33138074114e-07
3.55852497936e-06
5.57534425545e-07
3.04209464544e-06
4.65045312731e-07
2.5733197583e-06
3.60144052786e-07
2.15558539986e-06
2.46955367478e-07
1.78270756095e-06
1.28385744558e-07
1.44301391043e-06
1.1280746463e-06
1.75204776944e-08
9.75284535131e-07
6.62183350902e-08
2.74105808214e-06
1.38135250267e-07
4.19263701496e-06
2.24920280944e-07
5.33019793384e-06
3.18395643749e-07
6.1651936947e-06
4.11497628701e-07
6.72540140751e-06
4.9849560936e-07
7.04309529916e-06
5.75228526088e-07
7.15454432702e-06
6.39021247781e-07
7.09476223805e-06
6.885408336e-07
6.8965683526e-06
7.23479928673e-07
6.58834410316e-06
7.44144578993e-07
6.19430908293e-06
7.50868566193e-07
5.7347108241e-06
7.43514500244e-07
5.22792630813e-06
7.2103867435e-07
4.69217596993e-06
6.81786419121e-07
4.14772510602e-06
6.24311095102e-07
3.61631323158e-06
5.48961007166e-07
3.11766766004e-06
4.58109142766e-07
2.6643303646e-06
3.55665831442e-07
2.25814148083e-06
2.44924211613e-07
1.89352798248e-06
1.28020711268e-07
1.55997059518e-06
1.25612989532e-06
1.70719335888e-08
9.58851234699e-07
6.45280445796e-08
2.69537671746e-06
1.3465194613e-07
4.12513388552e-06
2.19356174095e-07
5.24865970684e-06
3.10743151182e-07
6.07722916246e-06
4.01983148627e-07
6.63760258465e-06
4.87541699458e-07
6.96081442914e-06
5.63385570494e-07
7.08169425569e-06
6.26890974981e-07
7.03389787397e-06
6.76677075928e-07
6.84904433742e-06
7.12273454804e-07
6.55463393648e-06
7.33709397423e-07
6.17440663787e-06
7.40975600845e-07
5.72866032277e-06
7.3362949197e-07
5.23621278366e-06
7.10527484022e-07
4.71598899803e-06
6.70271911106e-07
4.18850887398e-06
6.12011382708e-07
3.67496176121e-06
5.3666355587e-07
3.19329917548e-06
4.46837291741e-07
2.7543635725e-06
3.46254172134e-07
2.35887495315e-06
2.38055378139e-07
2.00183493513e-06
1.24314777578e-07
1.67378724715e-06
1.38049783687e-06
1.66154279449e-08
9.42898161358e-07
6.2805447959e-08
2.6510290009e-06
1.31092051389e-07
4.05957549642e-06
2.13647201556e-07
5.16941368603e-06
3.0284454597e-07
5.99162769093e-06
3.92084772404e-07
6.5520006048e-06
4.76022510221e-07
6.88036715329e-06
5.50745534976e-07
7.01018508216e-06
6.13675414413e-07
6.97382818797e-06
6.63383545862e-07
6.80180937656e-06
6.99251375596e-07
6.52084972063e-06
7.210744333e-07
6.15429708037e-06
7.28584253869e-07
5.72252717077e-06
7.21155805607e-07
5.24472363715e-06
6.97679242365e-07
4.74030097999e-06
6.57076180372e-07
4.22974833674e-06
5.99005499483e-07
3.73351383496e-06
5.24738164721e-07
3.26792979829e-06
4.3689192391e-07
2.84248380762e-06
3.3882063158e-07
2.45715212089e-06
2.33304380966e-07
2.1075046804e-06
1.22129846514e-07
1.78507405145e-06
1.50271032458e-06
1.61570484352e-08
9.27429607444e-07
6.10736334396e-08
2.60802908156e-06
1.27504299571e-07
3.99599095235e-06
2.07873366447e-07
5.09251024958e-06
2.94814486197e-07
5.90847150858e-06
3.81951516339e-07
6.4687161424e-06
4.64119349547e-07
6.80192085395e-06
5.37519901864e-07
6.94023724211e-06
5.99616045952e-07
6.91483026899e-06
6.48935274589e-07
6.7551930081e-06
6.84729431963e-07
6.48735471701e-06
7.06600695511e-07
6.13433692216e-06
7.14085070358e-07
5.71659745364e-06
7.06446657488e-07
5.25360272449e-06
6.82653288442e-07
4.76506914553e-06
6.41907315698e-07
4.27125207184e-06
5.84249751705e-07
3.79175714119e-06
5.11175798908e-07
3.34145545299e-06
4.25301459537e-07
2.92870628284e-06
3.29753301927e-07
2.552967756e-06
2.27131240955e-07
2.21033130982e-06
1.19071981414e-07
1.89328779769e-06
1.6219010735e-06
1.57019223172e-08
9.12444781713e-07
5.93521197103e-08
2.56637685416e-06
1.23930082082e-07
3.93438773232e-06
2.02103136549e-07
5.01797308628e-06
2.86752151022e-07
5.82781267645e-06
3.71714204571e-07
6.38783893964e-06
4.5199436937e-07
6.72561245709e-06
5.23901955642e-07
6.87204104476e-06
5.84938939479e-07
6.85714953217e-06
6.33596313603e-07
6.70948798129e-06
6.69019399779e-07
6.45446572767e-06
6.90660904904e-07
6.11482308505e-06
6.97924960898e-07
5.71108458439e-06
6.90033550376e-07
5.26291119329e-06
6.6607593136e-07
4.79015857483e-06
6.25515457616e-07
4.31270882274e-06
5.6868970202e-07
3.84928973914e-06
4.97220047867e-07
3.4134816359e-06
4.13654626196e-07
3.01270991107e-06
3.2086633885e-07
2.64610023775e-06
2.21234850036e-07
2.31023230446e-06
1.16224338919e-07
1.9985073646e-06
1.7382914168e-06
1.52543718764e-08
8.97938610871e-07
5.76574428867e-08
2.52606012765e-06
1.20404703844e-07
3.87475478783e-06
1.96395484698e-07
4.94580260841e-06
2.78744007967e-07
5.74967632628e-06
3.61488689278e-07
6.30943011075e-06
4.39793765653e-07
6.65154948834e-06
5.10069202666e-07
6.80575659638e-06
5.69855093852e-07
6.80099913763e-06
6.17615171185e-07
6.66495085874e-06
6.52412101405e-07
6.42245858104e-06
6.73589204691e-07
6.09601041403e-06
6.80469475869e-07
5.7061715289e-06
6.72277211222e-07
5.27271544401e-06
6.48235475581e-07
4.81550640019e-06
6.08029185963e-07
4.35396565234e-06
5.52217110275e-07
3.9059439176e-06
4.82491217343e-07
3.48388157366e-06
4.01325590151e-07
3.09441522876e-06
3.11384372513e-07
2.73647279506e-06
2.1487073679e-07
2.40709009361e-06
1.13107696121e-07
2.10054331113e-06
1.85162172385e-06
1.48180540556e-08
8.83902403209e-07
5.60036734835e-08
2.48705642138e-06
1.16958447872e-07
3.81706509927e-06
1.90801555482e-07
4.87597876799e-06
2.70865993027e-07
5.67406339062e-06
3.51378285681e-07
6.23352419718e-06
4.27650111353e-07
6.57981123858e-06
4.96185261965e-07
6.74151417934e-06
5.5456175709e-07
6.74656000628e-06
6.01226423783e-07
6.62180238826e-06
6.35183339198e-07
6.39156946067e-06
6.55703866676e-07
6.07811286931e-06
6.62073774756e-07
5.7020059092e-06
6.53554978231e-07
5.28306124006e-06
6.29511524954e-07
4.84104918452e-06
5.89819516704e-07
4.3948802943e-06
5.35204902456e-07
3.9615527052e-06
4.67388959779e-07
3.55250499984e-06
3.88751521507e-07
3.17370889151e-06
3.01752435166e-07
2.82400449025e-06
2.08418900225e-07
2.500855512e-06
1.09942120255e-07
2.19936886616e-06
1.96185451367e-06
1.43960818328e-08
8.70324391388e-07
5.44028586824e-08
2.44933444171e-06
1.13617467588e-07
3.76127778305e-06
1.85366025e-07
4.8084634054e-06
2.63185269085e-07
5.60095293315e-06
3.41475709387e-07
6.16013104311e-06
4.15684200903e-07
6.51045002326e-06
4.82401300192e-07
6.67941504291e-06
5.39243039661e-07
6.69398165672e-06
5.84649812281e-07
6.58022937403e-06
6.17589832851e-07
6.36199931541e-06
6.37295438508e-07
6.06131226772e-06
6.43050321186e-07
5.69871492708e-06
6.34177944099e-07
5.29399691918e-06
6.1018159605e-07
4.86675791104e-06
5.71099589594e-07
4.43537529649e-06
5.17783390656e-07
4.01603194877e-06
4.51957650734e-07
3.61928713412e-06
3.75901923296e-07
3.25055163936e-06
2.91889026998e-07
2.90866445922e-06
2.01785509584e-07
2.59149089511e-06
1.06665081551e-07
2.29492541299e-06
2.06888968435e-06
1.39911165644e-08
8.57190182765e-07
5.28653554065e-08
2.41285531743e-06
1.10404445175e-07
3.70733987162e-06
1.8012809135e-07
4.74320226211e-06
2.55761499267e-07
5.53030419157e-06
3.31864485866e-07
6.08923753069e-06
4.04006413971e-07
6.44349248532e-06
4.68857190084e-07
6.61953240138e-06
5.24070790026e-07
6.64338333407e-06
5.68091066739e-07
6.54038662195e-06
5.99871160059e-07
6.33391721589e-06
6.1863309289e-07
6.04576277687e-06
6.23687200874e-07
5.69640870574e-06
6.14436203045e-07
5.30557051319e-06
5.90519087793e-07
4.89262187752e-06
5.52113740548e-07
4.4754038801e-06
5.00166380958e-07
4.0693296776e-06
4.36385819554e-07
3.68419017285e-06
3.6294392078e-07
3.32492732678e-06
2.81935775084e-07
2.9904489787e-06
1.95076046461e-07
2.67899620921e-06
1.03332039767e-07
2.38720561118e-06
2.17268368198e-06
1.36054395903e-08
8.44483137481e-07
5.14000888928e-08
2.37757364621e-06
1.07339104181e-07
3.65518783541e-06
1.75122247087e-07
4.68012672751e-06
2.48647862455e-07
5.46205836964e-06
3.22620114662e-07
6.02080915848e-06
3.92717909484e-07
6.37894086091e-06
4.55682627156e-07
6.5619125044e-06
5.0920552688e-07
6.59485532101e-06
5.51742601795e-07
6.50239912029e-06
5.82250148187e-07
6.30746400552e-06
5.99964240866e-07
6.03159614515e-06
6.04244836875e-07
5.69518639038e-06
5.94586634682e-07
5.31783544111e-06
5.70759561534e-07
4.91865333352e-06
5.33062814887e-07
4.51495539296e-06
4.82514107513e-07
4.12143570352e-06
4.20793047798e-07
3.74721789301e-06
3.49960418119e-07
3.39685720225e-06
2.71944704882e-07
3.06938576905e-06
1.88319809721e-07
2.76339464123e-06
9.99565338781e-08
2.47621836513e-06
2.2732071011e-06
1.3241002906e-08
8.32184694827e-07
5.00147364797e-08
2.34343840501e-06
1.04438574615e-07
3.6047489179e-06
1.70378835542e-07
4.61915538611e-06
2.41891800489e-07
5.39614022779e-06
3.13810959155e-07
5.95479146565e-06
3.81911593537e-07
6.316774156e-06
4.42998107632e-07
6.50657568862e-06
4.9479743191e-07
6.54846023036e-06
5.35784661901e-07
6.46636407456e-06
5.64934602788e-07
6.28275539347e-06
5.81517701262e-07
6.0189255496e-06
5.84962058103e-07
5.69513946776e-06
5.74864128623e-07
5.33085127074e-06
5.51120633499e-07
4.94488385863e-06
5.14138291053e-07
4.55404722424e-06
4.64988887698e-07
4.17237074847e-06
4.05313084363e-07
3.80840423202e-06
3.37058659401e-07
3.46639045847e-06
2.61997760415e-07
3.14552913749e-06
1.81572993447e-07
2.84473626319e-06
9.6567917751e-08
2.56200040601e-06
2.37046083987e-06
1.28994658753e-08
8.20274661709e-07
4.87158627682e-08
2.31039375835e-06
1.01717666596e-07
3.55594232554e-06
1.6592447705e-07
4.56019540268e-06
2.35535603132e-07
5.33245950215e-06
3.05498970285e-07
5.89111130213e-06
3.71672942937e-07
6.25694920692e-06
4.30915837271e-07
6.45351732953e-06
4.80987368275e-07
6.50423417838e-06
5.20386570787e-07
6.43235270959e-06
5.4811899554e-07
6.25988461772e-06
5.63505972637e-07
6.0078488747e-06
5.66058657623e-07
5.69635480488e-06
5.55483160177e-07
5.3446854278e-06
5.31799939235e-07
4.97136423354e-06
4.95513108966e-07
4.59272360742e-06
4.47735615136e-07
4.22218549389e-06
3.90062559137e-07
3.86781306225e-06
3.2432905045e-07
3.53360395871e-06
2.52161027322e-07
3.2189589623e-06
1.74879935022e-07
2.92309398888e-06
9.31896632315e-08
2.64461030175e-06
2.46447025795e-06
1.25822235449e-08
8.08731471085e-07
4.75090263939e-08
2.27837978334e-06
9.91890900338e-08
3.50868029646e-06
1.61782415463e-07
4.50314376794e-06
2.29616898396e-07
5.27091216321e-06
2.97740309238e-07
5.82967794665e-06
3.6208075385e-07
6.19940159313e-06
4.19540617164e-07
6.40270863497e-06
4.67907982779e-07
6.46218772548e-06
5.05708220223e-07
6.40041168012e-06
5.31986583547e-07
6.2389244894e-06
5.46128232908e-07
5.99845114252e-06
5.47739390147e-07
5.69891674202e-06
5.36642682562e-07
5.35941408627e-06
5.12980793658e-07
4.99816365376e-06
4.7734841047e-07
4.63105350552e-06
4.30890503745e-07
4.27095785665e-06
3.75152656215e-07
3.92553533684e-06
3.11859402785e-07
3.59859974605e-06
2.42500661595e-07
3.28977836067e-06
1.6828597828e-07
2.9985629277e-06
8.98462682613e-08
2.72412867135e-06
2.55528637904e-06
1.22904260203e-08
7.97532419248e-07
4.63988536696e-08
2.24733313494e-06
9.68636076582e-08
3.4628690803e-06
1.57972761755e-07
4.44788844001e-06
2.2416899019e-07
5.21138156173e-06
2.90585778747e-07
5.77038410711e-06
3.53207673534e-07
6.14404642221e-06
4.08970518947e-07
6.35409726738e-06
4.55684644419e-07
6.42230653072e-06
4.91901457605e-07
6.37056402055e-06
5.16711461858e-07
6.21992877688e-06
5.29573157972e-07
5.99080619899e-06
5.30197392832e-07
5.70290861802e-06
5.18529630665e-07
5.37512301296e-06
4.9483496217e-07
5.02536970536e-06
4.59794844654e-07
4.66912997292e-06
4.14580527041e-07
4.31879211446e-06
3.60686643744e-07
3.98168809731e-06
2.99730949773e-07
3.66150399345e-06
2.3307742657e-07
3.35811275383e-06
1.61832325629e-07
3.07125935775e-06
8.65591025753e-08
2.80065738584e-06
2.64298300246e-06
1.20249938614e-08
7.86653885515e-07
4.53890978449e-08
2.21718766126e-06
9.47501571246e-08
3.41840984453e-06
1.54512683407e-07
4.39430940257e-06
2.19221115112e-07
5.15373948497e-06
2.84081147749e-07
5.7131068249e-06
3.45120606031e-07
6.09077900005e-06
3.99297450189e-07
6.30760777033e-06
4.44436314902e-07
6.38455166887e-06
4.79111480304e-07
6.34280955012e-06
5.0246068684e-07
6.20293285869e-06
5.14021870621e-07
5.98497759404e-06
5.13617816093e-07
5.70841365305e-06
5.01322838424e-07
5.3919081813e-06
4.77526406551e-07
5.05308858074e-06
4.42995879697e-07
4.70707003084e-06
3.98926323086e-07
4.36581852699e-06
3.46762533253e-07
4.03641382174e-06
2.88020915046e-07
3.72246614037e-06
2.23949616267e-07
3.42410866276e-06
1.55559770048e-07
3.14131894966e-06
8.33526406809e-08
2.8743162799e-06
2.72765997906e-06
1.17866309255e-08
7.7607153686e-07
4.44826879948e-08
2.18787497599e-06
9.2855949251e-08
3.3751995195e-06
1.51416551061e-07
4.34227965691e-06
2.14798629337e-07
5.09784714807e-06
2.78267367289e-07
5.65770831713e-06
3.37880994631e-07
6.03947539411e-06
3.90607585288e-07
6.26314180222e-06
4.34276308898e-07
6.34885957559e-06
4.67478164726e-07
6.31712467746e-06
4.89396402021e-07
6.18795356665e-06
4.99650938311e-07
5.98101860041e-06
4.98181523012e-07
5.71551516392e-06
4.85197038699e-07
5.40987613836e-06
4.61215084357e-07
5.0814455622e-06
4.27091019621e-07
4.74501519837e-06
3.84044625961e-07
4.41219381324e-06
3.33474584321e-07
4.08988076447e-06
2.7680288045e-07
3.78165922482e-06
2.15171720268e-07
3.48793426759e-06
1.49504404169e-07
3.20889802105e-06
8.02441387135e-08
2.94524600016e-06
2.80943633288e-06
1.15758339874e-08
7.65760520351e-07
4.36817648523e-08
2.15932499723e-06
9.11865351415e-08
3.33313159952e-06
1.48696025547e-07
4.29166617455e-06
2.10923095943e-07
5.04355615709e-06
2.73180653493e-07
5.60403678609e-06
3.31544916883e-07
5.98999293777e-06
3.82981580997e-07
6.2205781951e-06
4.25312826686e-07
6.31514162045e-06
4.57137184629e-07
6.29346157281e-06
4.77677793878e-07
6.17498816359e-06
4.86635289378e-07
5.97897127109e-06
4.84068835178e-07
5.72429597915e-06
4.7032706751e-07
5.42914397169e-06
4.46061152001e-07
5.11058558719e-06
4.12219632094e-07
4.78313249278e-06
3.70051542619e-07
4.45810227761e-06
3.20916090382e-07
4.1422838803e-06
2.661494381e-07
3.83928043227e-06
2.06797766498e-07
3.54977934229e-06
1.43703258647e-07
3.27417253949e-06
7.72545388377e-08
3.01360560403e-06
2.88845426932e-06
1.13928984979e-08
7.55695647573e-07
4.29877007262e-08
2.13146646524e-06
8.9745836641e-08
3.29209692096e-06
1.4636008099e-07
4.24233083831e-06
2.07612268111e-07
4.99070948415e-06
2.68852398044e-07
5.55192726165e-06
3.26162951887e-07
5.94217072576e-06
3.76494496683e-07
6.17977289775e-06
4.176491363e-07
6.28328334975e-06
4.48220758951e-07
6.27174671113e-06
4.67462718179e-07
6.16401239663e-06
4.75150890376e-07
5.97886442823e-06
4.7146320729e-07
5.73483687555e-06
4.56892204626e-07
5.44983866702e-06
4.32229470033e-07
5.14067373822e-06
3.98525125447e-07
4.82161586822e-06
3.5706600703e-07
4.5037577766e-06
3.09181814846e-07
4.19384688108e-06
2.56133365286e-07
3.89555301057e-06
1.98880888875e-07
3.60985689064e-06
1.38191571058e-07
3.33733950663e-06
7.44023593108e-08
3.07957361097e-06
2.96487714317e-06
1.12379258116e-08
7.45851569222e-07
4.24011242931e-08
2.10422743507e-06
8.85361837604e-08
3.25198441416e-06
1.44415027568e-07
4.19413137652e-06
2.04880060179e-07
4.93914246256e-06
2.65309063408e-07
5.50120247548e-06
3.21779990617e-07
5.89583013508e-06
3.71215610926e-07
6.14055883788e-06
4.11383608724e-07
6.2531434255e-06
4.4085822772e-07
6.25187878792e-06
4.58909187629e-07
6.15497756472e-06
4.65377450666e-07
5.98071039134e-06
4.60555183793e-07
5.74721376307e-06
4.45081126495e-07
5.47209552013e-06
4.19895049127e-07
5.17189533621e-06
3.86160289774e-07
4.86068788856e-06
3.45214524668e-07
4.54940642688e-06
2.98371899851e-07
4.24482527315e-06
2.46830750086e-07
3.95072910381e-06
1.91475941715e-07
3.6684054158e-06
1.33005304638e-07
3.39861854966e-06
7.17067064212e-08
3.14334866252e-06
3.03889054665e-06
1.11108249504e-08
7.36202945849e-07
4.19219237064e-08
2.07753576123e-06
8.75583040023e-08
3.21268185733e-06
1.42864452935e-07
4.14692232638e-06
2.02736386875e-07
4.88868385503e-06
2.62571855145e-07
5.45167385819e-06
3.18434734427e-07
5.85077545728e-06
3.67207798049e-07
6.10274582356e-06
4.0660916391e-07
6.22455239435e-06
4.35175922011e-07
6.23372610132e-06
4.52176124204e-07
6.14780660098e-06
4.57500473278e-07
5.98450033126e-06
4.51545985274e-07
5.7614933071e-06
4.35096887939e-07
5.49605518938e-06
4.09248904458e-07
5.20445526035e-06
3.75293271623e-07
4.90060142874e-06
3.3463652672e-07
4.59533010981e-06
2.88596099125e-07
4.2955106966e-06
2.3832395643e-07
4.00509402208e-06
1.84641317313e-07
3.72569248368e-06
1.28182167864e-07
3.45825443055e-06
6.91868165019e-08
3.20515175508e-06
3.11070302044e-06
1.101131572e-08
7.26724613386e-07
4.15492544065e-08
2.05131957151e-06
8.68113195823e-08
3.17407662929e-06
1.41709170223e-07
4.10055602716e-06
2.01186997467e-07
4.83915700546e-06
2.60656379097e-07
5.40314266811e-06
3.16159111279e-07
5.80679470594e-06
3.64526732568e-07
6.06612056482e-06
4.03412407535e-07
6.1973114052e-06
4.31296577358e-07
6.21712351793e-06
4.47423589086e-07
6.14238919425e-06
4.5171291175e-07
5.99019807463e-06
4.4465103582e-07
5.77772660932e-06
4.27162377e-07
5.52185882608e-06
4.00504979778e-07
5.2385758891e-06
3.66115066643e-07
4.94164097149e-06
3.2549141689e-07
4.64185063371e-06
2.79979596682e-07
4.3462367221e-06
2.30705871606e-07
4.05897230464e-06
1.78441642627e-07
3.78202003796e-06
1.23762778742e-07
3.51652126266e-06
6.68633156384e-08
3.26522852703e-06
3.18054816315e-06
1.09389301114e-08
7.1739174562e-07
4.12815402939e-08
2.02550773568e-06
8.62927301184e-08
3.13605647064e-06
1.40947138032e-07
4.05488365941e-06
2.00233263197e-07
4.79038109611e-06
2.59572190782e-07
5.35540131446e-06
3.14977502282e-07
5.76366067973e-06
3.63219748576e-07
6.03044696486e-06
4.0187223415e-07
6.17119104979e-06
4.29337990757e-07
6.20186921667e-06
4.44812065778e-07
6.13857609597e-06
4.48215884102e-07
5.99773229744e-06
4.40102866521e-07
5.79594056722e-06
4.21525793176e-07
5.54964058519e-06
3.9390789462e-07
5.27449283682e-06
3.58848533881e-07
4.98412280824e-06
3.17967470319e-07
4.68933426106e-06
2.72670603303e-07
4.39738623729e-06
2.24085611593e-07
4.11273596104e-06
1.72951658929e-07
3.83773180211e-06
1.19793252111e-07
3.57372824627e-06
6.47589352164e-08
3.32385360903e-06
3.24868763198e-06
1.08930130111e-08
7.08180014716e-07
4.11164723397e-08
2.00003033226e-06
8.59983897801e-08
3.09851025834e-06
1.40573369083e-07
4.00975633823e-06
1.99871933935e-07
4.74217253245e-06
2.59322289821e-07
5.30823490315e-06
3.14905829849e-07
5.7211323679e-06
3.63324403684e-07
5.99546683567e-06
4.02057868121e-07
6.14593058047e-06
4.29410801107e-07
6.18772149675e-06
4.44500599258e-07
6.13617282957e-06
4.47218104457e-07
6.00698717432e-06
4.38152992502e-07
5.81612657196e-06
4.18465802733e-07
5.57951673265e-06
3.89741435565e-07
5.3124473646e-06
3.53759222479e-07
5.0283930631e-06
3.12293229036e-07
4.73819595003e-06
2.66850475191e-07
4.44940046686e-06
2.18596183343e-07
4.16681554265e-06
1.68261169535e-07
3.89322374405e-06
1.16327822969e-07
3.63022802863e-06
6.28997940322e-08
3.38133656354e-06
3.31541565136e-06
1.08727234888e-08
6.99065749675e-07
4.10510103028e-08
1.97481911227e-06
8.59224925282e-08
3.06132879095e-06
1.40579854486e-07
3.96502625706e-06
2.00094914587e-07
4.69434645703e-06
2.59902605978e-07
5.26142303925e-06
3.15950569363e-07
5.67895677183e-06
3.6486683028e-07
5.96090117756e-06
4.04026426651e-07
6.12123776481e-06
4.31615383537e-07
6.17439603483e-06
4.46643574227e-07
6.13493322753e-06
4.4893368045e-07
6.01779167387e-06
4.39072197101e-07
5.83822639162e-06
4.18295820514e-07
5.61157051066e-06
3.88337521283e-07
5.35267401943e-06
3.51168292449e-07
5.07482187103e-06
3.08752259582e-07
4.78890205943e-06
2.6274761964e-07
4.50278927902e-06
2.14405455555e-07
4.22171463785e-06
1.64482326789e-07
3.94895869679e-06
1.13432916746e-07
3.68642869571e-06
6.13171274687e-08
3.43803051329e-06
3.38106556196e-06
1.08770368124e-08
6.90026092684e-07
4.10813882205e-08
1.94980795845e-06
8.60575679134e-08
3.02440558044e-06
1.40955506383e-07
3.92054787777e-06
2.00889066748e-07
4.64671839093e-06
2.61301509737e-07
5.214741895e-06
3.18107743201e-07
5.63687119524e-06
3.67859910775e-07
5.92645219065e-06
4.07820019341e-07
6.09678966752e-06
4.36037798334e-07
6.16156405889e-06
4.51385913197e-07
6.13455338607e-06
4.53577679009e-07
6.02990806435e-06
4.43148430794e-07
5.86211525933e-06
4.21366429856e-07
5.64583206946e-06
3.90084828665e-07
5.39538181634e-06
3.51467363475e-07
5.12379133345e-06
3.07702011124e-07
4.84196932251e-06
2.60656634656e-07
4.55814171718e-06
2.11732016312e-07
4.2780282802e-06
1.61760392096e-07
4.00548671862e-06
1.11193062011e-07
3.74281118512e-06
6.00497456335e-08
3.49434469916e-06
3.44601924766e-06
1.09047464667e-08
6.81039154048e-07
4.12031220464e-08
1.92493333994e-06
8.63944857637e-08
2.98763764732e-06
1.41686122605e-07
3.87617915956e-06
2.02236048493e-07
4.59910599503e-06
2.63499367815e-07
5.16796654857e-06
3.21361921929e-07
5.59460605668e-06
3.72301357438e-07
5.89180613967e-06
4.13462459638e-07
6.07223466985e-06
4.42744803096e-07
6.14885199237e-06
4.58856488716e-07
6.13466685809e-06
4.61358914749e-07
6.04302053749e-06
4.50681109859e-07
5.88758283603e-06
4.2806440412e-07
5.68225304684e-06
3.95435591011e-07
5.44072714687e-06
3.55134441711e-07
5.17567413667e-06
3.09597218404e-07
4.89795652145e-06
2.60964477092e-07
4.61613431612e-06
2.108683845e-07
4.33646511507e-06
1.6029008294e-07
4.06347320025e-06
1.09719863673e-07
3.79995489202e-06
5.91475799761e-08
3.55076315183e-06
3.51072071972e-06
1.09544669754e-08
6.72084165845e-07
4.14110234648e-08
1.90013475934e-06
8.69224799269e-08
2.95092630979e-06
1.42754392457e-07
3.8317828104e-06
2.04112226924e-07
4.55133092853e-06
2.66468202438e-07
5.12087357593e-06
3.25685353271e-07
5.55188822001e-06
3.78171851961e-07
5.85663716704e-06
4.20955799096e-07
6.04719599426e-06
4.51778136654e-07
6.13584314477e-06
4.6915982285e-07
6.13484206914e-06
4.72469618327e-07
6.05672529806e-06
4.61970860011e-07
5.91431332667e-06
4.38806394726e-07
5.72067630694e-06
4.04908189133e-07
5.48877693656e-06
3.6274921823e-07
5.23079889821e-06
3.15017800481e-07
4.9574434865e-06
2.64185826199e-07
4.67753244794e-06
2.12215316761e-07
4.3978715852e-06
1.60341244317e-07
4.12373680006e-06
1.0916637267e-07
3.85857574229e-06
5.86771603324e-08
3.60787323058e-06
3.57569599163e-06
1.10246388051e-08
6.63141633169e-07
4.16992264763e-08
1.8753551836e-06
8.76292070364e-08