/*--------------------------------*- C++ -*----------------------------------*\
| =========                 |                                                 |
| \\      /  F ield         | OpenFOAM: The Open Source CFD Toolbox           |
|  \\    /   O peration     | Version:  2112                                  |
|   \\  /    A nd           | Website:  www.openfoam.com                      |
|    \\/     M anipulation  |                                                 |
\*---------------------------------------------------------------------------*/
FoamFile
{
    version     2.0;
    format      ascii;
    arch        "LSB;label=64;scalar=64";
    class       surfaceScalarField;
    location    "0.0051";
    object      phi.gas;
}
// * * * * * * * * * * * * * * * * * * * * * * * * * * * * * * * * * * * * * //

dimensions      [0 3 -1 0 0 0 0];

oriented        oriented;

internalField   nonuniform List<scalar> 
10912
(
1.89934011994e-08
1.14010257855e-06
7.16842873321e-08
3.19884300268e-06
1.48568808576e-07
4.86617869007e-06
2.398861348e-07
6.13869317543e-06
3.35683586966e-07
7.027855247e-06
4.28301916588e-07
7.57395742151e-06
5.11366564165e-07
7.82099486933e-06
5.80233771041e-07
7.82049156702e-06
6.31859685233e-07
7.62200914857e-06
6.64792955821e-07
7.27271420916e-06
6.78953292945e-07
6.81388234145e-06
6.75305529929e-07
6.28047000752e-06
6.56235410785e-07
5.70036101266e-06
6.25333078626e-07
5.09407120874e-06
5.87399343821e-07
4.4751187651e-06
5.4677390017e-07
3.85103356671e-06
5.09201222793e-07
3.22488520448e-06
4.77459245743e-07
2.59907427469e-06
4.50743428625e-07
1.97899771653e-06
4.15417155551e-07
1.38291570689e-06
3.49564379578e-07
8.34695462362e-07
2.12514768444e-07
3.67244249462e-07
-4.22560382799e-08
1.95882968122e-08
1.12092913032e-06
7.39780795541e-08
3.14562360469e-06
1.5363101793e-07
4.78832436607e-06
2.48708355792e-07
6.04587762682e-06
3.49148277946e-07
6.92995383116e-06
4.46755087769e-07
7.47897149965e-06
5.34561409211e-07
7.73570657647e-06
6.07356770151e-07
7.74995827258e-06
6.61570341177e-07
7.56970133391e-06
6.95356221699e-07
7.24043505202e-06
7.08583886903e-07
6.80176946792e-06
7.02814977411e-07
6.28700572198e-06
6.81634394422e-07
5.72202679518e-06
6.50408189498e-07
5.12557414787e-06
6.15959465219e-07
4.50970483693e-06
5.85137731871e-07
3.88190784083e-06
5.63143760477e-07
3.24688634e-06
5.48526812288e-07
2.61368040802e-06
5.29066918643e-07
1.99844204427e-06
4.8003297635e-07
1.43193156381e-06
3.71005744695e-07
9.43699861382e-07
1.89931775166e-07
5.48285860005e-07
1.47644280544e-07
1.96890524223e-08
1.10184625372e-06
7.43217179408e-08
3.09265316698e-06
1.54384749636e-07
4.71063244465e-06
2.49967730143e-07
5.95301554777e-06
3.51033814549e-07
6.83163801993e-06
4.49331212967e-07
7.38321489201e-06
5.37975819802e-07
7.64925166883e-06
6.11989983523e-07
7.67773221746e-06
6.68171299414e-07
7.51491974351e-06
7.05118879421e-07
7.20455225168e-06
7.23139866412e-07
6.78454794651e-06
7.24091072934e-07
6.28665862038e-06
7.11333375106e-07
5.73525145776e-06
6.89148684247e-07
5.14813163546e-06
6.62058262436e-07
4.5371018406e-06
6.33115362486e-07
3.91110676674e-06
6.01996188841e-07
3.2782175367e-06
5.62104551477e-07
2.65374374393e-06
5.00494199487e-07
2.06018933012e-06
4.0435820426e-07
1.52817779969e-06
2.74058203041e-07
1.07409048456e-06
1.35140414819e-07
6.87277407778e-07
2.82837455164e-07
1.95469532661e-08
1.0828203977e-06
7.38037071531e-08
3.03983416113e-06
1.53459369885e-07
4.63305674279e-06
2.48774258084e-07
5.86013883797e-06
3.49950799979e-07
6.73299968653e-06
4.48816208606e-07
7.28678862604e-06
5.38570099409e-07
7.56170357801e-06
6.14270553776e-07
7.60393219638e-06
6.7272186533e-07
7.45803809172e-06
7.12492305043e-07
7.16602971956e-06
7.3383060812e-07
6.76416532294e-06
7.38554822003e-07
6.28263906436e-06
7.29893791094e-07
5.74441119347e-06
7.11888471082e-07
5.16647431375e-06
6.88502940299e-07
4.56070427706e-06
6.62014236789e-07
3.93772754482e-06
6.30756152065e-07
3.30955132305e-06
5.87722203436e-07
2.69682014861e-06
5.22495667665e-07
2.1254395095e-06
4.28461175529e-07
1.62222552089e-06
3.09932454151e-07
1.19262379654e-06
1.74736902407e-07
8.22471328798e-07
4.57564048193e-07
1.93467073284e-08
1.0640176399e-06
7.30635854244e-08
2.98762015534e-06
1.52036608965e-07
4.5562652883e-06
2.4670149263e-07
5.76804267559e-06
3.47487722215e-07
6.63489904646e-06
4.46320813197e-07
7.19054528068e-06
5.36521445926e-07
7.47384974812e-06
6.13253496809e-07
7.52922367793e-06
6.73443490703e-07
7.39952077173e-06
7.15781944244e-07
7.12502554946e-06
7.40589195431e-07
6.74039023177e-06
7.49612418584e-07
6.27439412409e-06
7.45626274173e-07
5.74897133986e-06
7.31646369097e-07
5.18086929077e-06
7.09856824545e-07
4.58278794063e-06
6.80099781233e-07
3.96768890838e-06
6.38414432887e-07
3.35137612965e-06
5.77859584417e-07
2.75747085591e-06
4.92129244291e-07
2.21123924829e-06
3.82312283246e-07
1.73209766097e-06
2.56991682097e-07
1.31799101928e-06
1.28178895964e-07
9.51325085281e-07
5.85775820536e-07
1.90722719569e-08
1.04550002748e-06
7.20411619889e-08
2.9361849881e-06
1.50004644979e-07
4.48053307965e-06
2.4360686829e-07
5.67707728095e-06
3.43536263231e-07
6.53774030467e-06
4.41873800969e-07
7.09489815073e-06
5.32105765509e-07
7.38607797451e-06
6.09521153649e-07
7.45395372394e-06
6.71140928022e-07
7.3396983111e-06
7.15691385057e-07
7.08192964711e-06
7.43427993687e-07
6.71379387841e-06
7.55880744779e-07
6.26280830014e-06
7.55357353969e-07
5.750132737e-06
7.44179012593e-07
5.19250040646e-06
7.23641050156e-07
4.60363373052e-06
6.92882413485e-07
3.99864740987e-06
6.48147405737e-07
3.39623521255e-06
5.84447528383e-07
2.82124655534e-06
4.98946392199e-07
2.29678714131e-06
3.94286468145e-07
1.83678779324e-06
2.76210723807e-07
1.4360850992e-06
1.48287260472e-07
1.07925909081e-06
7.34065923763e-07
1.87401532113e-08
1.02732665125e-06
7.07996745819e-08
2.88569445113e-06
1.47502339119e-07
4.40612015571e-06
2.39725278958e-07
5.5875730593e-06
3.38432196559e-07
6.44190746635e-06
4.35890892831e-07
7.00025134828e-06
5.25771835948e-07
7.29879095904e-06
6.03500017004e-07
7.37851013436e-06
6.66189009714e-07
7.27894444502e-06
7.12585573028e-07
7.03711839906e-06
7.42847598756e-07
6.68479166577e-06
7.58218943055e-07
6.24840972096e-06
7.60433407195e-07
5.74864723975e-06
7.5094144595e-07
5.20252107384e-06
7.29921969016e-07
4.62502237363e-06
6.95567907756e-07
4.03324910753e-06
6.44136752652e-07
3.44782628699e-06
5.72252887378e-07
2.89323210043e-06
4.79702114812e-07
2.38940326834e-06
3.71208489138e-07
1.94532599052e-06
2.5295065273e-07
1.55437451278e-06
1.30204639796e-07
1.20202883015e-06
8.64287463654e-07
1.83636931059e-08
1.00954444458e-06
6.93885182349e-08
2.83628095487e-06
1.44632993057e-07
4.33323427966e-06
2.35223317294e-07
5.4997956944e-06
3.32407708074e-07
6.34771387047e-06
4.28664411157e-07
6.90694157534e-06
5.17860712625e-07
7.2123360611e-06
5.95562270843e-07
7.30324650669e-06
6.58964026869e-07
7.21763040314e-06
7.0680359948e-07
6.99100987464e-06
7.39101161977e-07
6.65388752675e-06
7.56791071301e-07
6.23180995502e-06
7.61103448142e-07
5.74516243894e-06
7.52873612804e-07
5.21135895161e-06
7.31730486998e-07
4.64659639873e-06
6.95806381985e-07
4.0694682894e-06
6.42203321033e-07
3.5016259803e-06
5.69239973272e-07
2.966325521e-06
4.78010352635e-07
2.48071903116e-06
3.72785348224e-07
2.05060868296e-06
2.57728771543e-07
1.66946857904e-06
1.35369227322e-07
1.32441155325e-06
9.99669020856e-07
1.79538884599e-08
9.92188849364e-07
6.78491260191e-08
2.78804522349e-06
1.41484664027e-07
4.26203509962e-06
2.30245856949e-07
5.41395294289e-06
3.25668838111e-07
6.25541145401e-06
4.20457175486e-07
6.81524953583e-06
5.0867958432e-07
7.12701769373e-06
5.86040760021e-07
7.22849213226e-06
6.49805686276e-07
7.15612127854e-06
6.98682688953e-07
6.94402491216e-06
7.32530175422e-07
6.62158221078e-06
7.51955252828e-07
6.2136078412e-06
7.57692886744e-07
5.74036723823e-06
7.49995981866e-07
5.2197603802e-06
7.28003254024e-07
4.66909908678e-06
6.89792446243e-07
4.10803743408e-06
6.33137519358e-07
3.55852687343e-06
5.57533852631e-07
3.0420962881e-06
4.65044809927e-07
2.57332123738e-06
3.60143600438e-07
2.15558677452e-06
2.46955066842e-07
1.78270885837e-06
1.28385517412e-07
1.44301512711e-06
1.12807588357e-06
1.75204984699e-08
9.75285686302e-07
6.62183527145e-08
2.74106130363e-06
1.38135271923e-07
4.19264186912e-06
2.24920287079e-07
5.33020396535e-06
3.1839563394e-07
6.16520045524e-06
4.11497587034e-07
6.7254085036e-06
4.98495535502e-07
7.04310240103e-06
5.75228411639e-07
7.15455118398e-06
6.39021093956e-07
7.09476866997e-06
6.88540634979e-07
6.89657424577e-06
7.2347968412e-07
6.58834939425e-06
7.4414427835e-07
6.1943137495e-06
7.50868205885e-07
5.73471487203e-06
7.43514067317e-07
5.22792976643e-06
7.21038181828e-07
4.6921788851e-06
6.81785870035e-07
4.1477275398e-06
6.24310546725e-07
3.61631525683e-06
5.48960471044e-07
3.11766935181e-06
4.58108701583e-07
2.66433179487e-06
3.55665448862e-07
2.25814271011e-06
2.4492397217e-07
1.89352906503e-06
1.28020528297e-07
1.55997157642e-06
1.25613094818e-06
1.707195367e-08
9.5885242363e-07
6.45280550179e-08
2.69538004611e-06
1.34651953104e-07
4.12513890906e-06
2.19356155172e-07
5.24866596295e-06
3.1074310597e-07
6.07723619469e-06
4.01983060865e-07
6.63760999053e-06
4.87541570113e-07
6.96082186847e-06
5.63385392058e-07
7.08170146692e-06
6.26890750419e-07
7.03390466641e-06
6.76676801103e-07
6.84905058808e-06
7.12273130791e-07
6.55463957503e-06
7.33709015845e-07
6.1744116377e-06
7.40975161753e-07
5.72866468935e-06
7.33628984909e-07
5.23621654915e-06
7.1052692618e-07
4.71599221643e-06
6.70271304737e-07
4.18851161692e-06
6.1201078492e-07
3.6749641131e-06
5.3666297144e-07
3.19330121979e-06
4.46836802602e-07
2.75436538488e-06
3.4625374252e-07
2.35887658672e-06
2.38055100764e-07
2.00183642795e-06
1.24314575643e-07
1.67378861705e-06
1.38049924069e-06
1.66154475947e-08
9.42899391615e-07
6.28054524608e-08
2.65103244682e-06
1.31092046184e-07
4.05958070513e-06
2.13647161452e-07
5.16942018724e-06
3.02844470508e-07
5.99163501921e-06
3.92084644614e-07
6.55200834771e-06
4.76022331918e-07
6.8803749593e-06
5.50745299124e-07
7.01019267805e-06
6.13675125391e-07
6.97383537183e-06
6.63383200724e-07
6.80181601562e-06
6.99250977745e-07
6.5208557371e-06
7.21073976718e-07
6.15430244267e-06
7.28583743106e-07
5.72253188194e-06
7.21155234529e-07
5.24472772804e-06
6.97678634666e-07
4.74030450332e-06
6.57075541493e-07
4.22975136016e-06
5.99004889365e-07
3.73351643649e-06
5.24737584569e-07
3.26793205296e-06
4.3689145124e-07
2.84248578619e-06
3.38820224205e-07
2.45715387754e-06
2.33304123388e-07
2.10750626364e-06
1.2212965974e-07
1.78507549585e-06
1.50271182449e-06
1.61570679053e-08
9.27430882501e-07
6.10736332088e-08
2.60803265463e-06
1.27504284596e-07
3.99599636172e-06
2.07873308921e-07
5.09251701617e-06
2.94814385499e-07
5.90847915722e-06
3.81951354478e-07
6.46872424982e-06
4.64119128778e-07
6.80192905646e-06
5.3751961524e-07
6.94024525403e-06
5.99615698937e-07
6.91483787653e-06
6.4893486528e-07
6.7552000682e-06
6.84728965996e-07
6.48736114421e-06
7.06600169212e-07
6.13434268001e-06
7.1408449224e-07
5.71660254352e-06
7.06446024701e-07
5.25360717782e-06
6.8265262863e-07
4.76507301762e-06
6.419066348e-07
4.27125543305e-06
5.84249109165e-07
3.7917600722e-06
5.11175192483e-07
3.34145802963e-06
4.25300964309e-07
2.9287085757e-06
3.29752876285e-07
2.55296981605e-06
2.27130969195e-07
2.21033318064e-06
1.19071790501e-07
1.8932895069e-06
1.62190282931e-06
1.57019418509e-08
9.12446104962e-07
5.93521159153e-08
2.56638056403e-06
1.23930059673e-07
3.93439335758e-06
2.02103065272e-07
5.01798013835e-06
2.86752030014e-07
5.82782066977e-06
3.71714014558e-07
6.38784743936e-06
4.51994112664e-07
6.72562108659e-06
5.2390162503e-07
6.87204950512e-06
5.84938541203e-07
6.85715759696e-06
6.33595846668e-07
6.70949549653e-06
6.69018872011e-07
6.45447259958e-06
6.90660315182e-07
6.11482927167e-06
6.97924321816e-07
5.71109008438e-06
6.90032862868e-07
5.26291603692e-06
6.66075227297e-07
4.7901628171e-06
6.2551474474e-07
4.31271253262e-06
5.68689039975e-07
3.84929299514e-06
4.9721943246e-07
3.41348451069e-06
4.13654128737e-07
3.01271247363e-06
3.20865916275e-07
2.64610253935e-06
2.21234581396e-07
2.31023439219e-06
1.16224153048e-07
1.99850927165e-06
1.73829338339e-06
1.5254391711e-08
8.97939985624e-07
5.76574366707e-08
2.52606398377e-06
1.20404676288e-07
3.87476064399e-06
1.96395403299e-07
4.94580996589e-06
2.78743871542e-07
5.74968468864e-06
3.61488477054e-07
6.30943903089e-06
4.39793479641e-07
6.65155857604e-06
5.1006883505e-07
6.80576553869e-06
5.6985465133e-07
6.80100769472e-06
6.17614653499e-07
6.66495886493e-06
6.52411518414e-07
6.42246593361e-06
6.7358855778e-07
6.09601706495e-06
6.80468781349e-07
5.70617747383e-06
6.72276473381e-07
5.2727207121e-06
6.48234729376e-07
4.81551104677e-06
6.08028440254e-07
4.35396974652e-06
5.52216423835e-07
3.90594753802e-06
4.82490584665e-07
3.48388479236e-06
4.01325079358e-07
3.09441811423e-06
3.11383941644e-07
2.73647539774e-06
2.14870461675e-07
2.40709245996e-06
1.13107510043e-07
2.1005454742e-06
1.85162395284e-06
1.48180744247e-08
8.83903832701e-07
5.60036659739e-08
2.48706043302e-06
1.16958417427e-07
3.81707120109e-06
1.90801467574e-07
4.87598645067e-06
2.70865846093e-07
5.67407214642e-06
3.51378057267e-07
6.23353356623e-06
4.27649802835e-07
6.57982081644e-06
4.96184864597e-07
6.74152363826e-06
5.54561277693e-07
6.74656909219e-06
6.01225862633e-07
6.62181092294e-06
6.35182708007e-07
6.39157733156e-06
6.5570316931e-07
6.07812002155e-06
6.62073031041e-07
5.70201233454e-06
6.53554195825e-07
5.28306696568e-06
6.29510741634e-07
4.84105426503e-06
5.89818742883e-07
4.39488479796e-06
5.35204196101e-07
3.96155670975e-06
4.67388314914e-07
3.55250857615e-06
3.887510027e-07
3.17371210767e-06
3.01752001348e-07
2.82400739712e-06
2.08418622717e-07
2.50085815761e-06
1.09941935774e-07
2.19937128641e-06
1.96185701402e-06
1.43961029683e-08
8.70325878777e-07
5.44028509999e-08
2.44933861793e-06
1.13617436507e-07
3.76128414507e-06
1.85365934216e-07
4.80847143292e-06
2.63185116611e-07
5.60096210686e-06
3.41475470948e-07
6.16014088991e-06
4.15683876917e-07
6.51046012398e-06
4.8240088066e-07
6.67942505429e-06
5.39242531172e-07
6.69399130957e-06
5.84649215401e-07
6.58023847661e-06
6.17589160886e-07
6.36200774436e-06
6.37294697668e-07
6.0613199604e-06
6.43049534482e-07
5.69872187059e-06
6.34177122341e-07
5.29400313819e-06
6.10180779296e-07
4.86676345915e-06
5.71098789761e-07
4.43538024135e-06
5.17782664624e-07
4.01603636776e-06
4.51956992579e-07
3.61929109772e-06
3.75901394198e-07
3.25055521568e-06
2.91888587783e-07
2.90866769954e-06
2.01785227449e-07
2.59149384835e-06
1.066648974e-07
2.29492811697e-06
2.06889248355e-06
1.39911386982e-08
8.5719173113e-07
5.28653486735e-08
2.41285966706e-06
1.1040441572e-07
3.70734650812e-06
1.80128001372e-07
4.74321065393e-06
2.5576134633e-07
5.53031380766e-06
3.31864243764e-07
6.08924788444e-06
4.04006081864e-07
6.44350314238e-06
4.68856756393e-07
6.61954300229e-06
5.24070260727e-07
6.64339359362e-06
5.68090442392e-07
6.54039633381e-06
5.99870455254e-07
6.33392624479e-06
6.18632316e-07
6.04577105131e-06
6.23686377786e-07
5.69641620717e-06
6.14435347611e-07
5.30557726297e-06
5.90518242075e-07
4.89262792767e-06
5.52112918165e-07
4.47540929736e-06
5.00165637714e-07
4.0693345389e-06
4.36385150088e-07
3.68419454848e-06
3.6294338287e-07
3.32493128513e-06
2.81935331732e-07
2.99045257201e-06
1.95075760457e-07
2.67899948794e-06
1.03331856136e-07
2.38720861583e-06
2.17268680088e-06
1.36054629563e-08
8.44484749816e-07
5.1400084241e-08
2.37757817789e-06
1.07339078641e-07
3.6551947604e-06
1.75122161675e-07
4.68013550288e-06
2.48647714282e-07
5.46206845258e-06
3.22619875518e-07
6.02082004868e-06
3.92717576985e-07
6.37895210853e-06
4.55682187814e-07
6.56192373313e-06
5.09204985643e-07
6.59486622873e-06
5.51741958866e-07
6.50240948497e-06
5.82249419064e-07
6.30747367869e-06
5.9996343583e-07
6.03160504523e-06
6.04243984346e-07
5.69519449203e-06
5.94585751395e-07
5.3178427616e-06
5.70758691283e-07
4.91865992278e-06
5.33061973097e-07
4.51496131673e-06
4.82513348886e-07
4.1214410384e-06
4.2079236795e-07
3.74722270949e-06
3.49959871555e-07
3.39686156935e-06
2.7194425725e-07
3.0693897403e-06
1.88319519505e-07
2.76339826865e-06
9.99563504939e-08
2.47622169212e-06
2.27321056399e-06
1.32410277409e-08
8.3218637403e-07
5.0014735057e-08
2.34344312712e-06
1.04438555324e-07
3.60475614508e-06
1.70378758558e-07
4.61916456403e-06
2.41891662496e-07
5.39615080197e-06
3.13810729906e-07
5.95480292203e-06
3.81911268831e-07
6.31678602906e-06
4.42997671746e-07
6.50658758468e-06
4.9479688831e-07
6.54847182951e-06
5.35784010023e-07
6.46637513785e-06
5.64933858588e-07
6.28276575785e-06
5.81516876613e-07
6.01893512198e-06
5.849611836e-07
5.69514821479e-06
5.74863223741e-07
5.33085920462e-06
5.51119743578e-07
4.94489102654e-06
5.14137433477e-07
4.55405369069e-06
4.64988116133e-07
4.17237658981e-06
4.05312395777e-07
3.80840951917e-06
3.37058105129e-07
3.46639526142e-06
2.6199730916e-07
3.14553351139e-06
1.8157269923e-07
2.84474026207e-06
9.65677346436e-08
2.56200407652e-06
2.37046467101e-06
1.28994924203e-08
8.20276410579e-07
4.87158657442e-08
2.310398679e-06
1.01717655941e-07
3.55594986824e-06
1.65924412482e-07
4.5602050018e-06
2.35535480965e-07
5.33247059175e-06
3.05498758241e-07
5.89112335458e-06
3.71672634748e-07
6.25696174093e-06
4.30915414648e-07
6.45352993361e-06
4.80986832716e-07
6.50424651399e-06
5.20385920484e-07
6.43236451966e-06
5.48118246382e-07
6.2598957231e-06
5.63505137694e-07
6.00785916924e-06
5.66057769272e-07
5.69636424572e-06
5.55482240473e-07
5.34469402097e-06
5.31799034912e-07
4.97137202277e-06
4.95512239507e-07
4.59273065572e-06
4.47734833262e-07
4.22219187734e-06
3.90061863522e-07
3.86781885249e-06
3.24328489434e-07
3.53360922701e-06
2.52160572972e-07
3.21896376585e-06
1.7487963695e-07
2.92309838401e-06
9.31894804394e-08
2.64461433869e-06
2.46447448325e-06
1.25822520461e-08
8.08733292303e-07
4.75090349648e-08
2.27838491031e-06
9.91890904722e-08
3.5086881676e-06
1.61782367447e-07
4.50315380647e-06
2.29616797965e-07
5.27092379215e-06
2.97740122136e-07
5.82969062505e-06
3.6208047152e-07
6.19941482408e-06
4.19540218425e-07
6.40272198887e-06
4.67907466641e-07
6.46220084441e-06
5.05707583086e-07
6.40042428764e-06
5.31985840625e-07
6.23893638866e-06
5.46127397984e-07
5.99846221255e-06
5.47738496943e-07
5.69892692884e-06
5.36641755525e-07
5.35942338837e-06
5.12979880801e-07
4.99817211057e-06
4.77347533524e-07
4.63106117812e-06
4.30889714624e-07
4.27096482081e-06
3.75151955641e-07
3.92554166516e-06
3.11858836286e-07
3.59860551141e-06
2.4250020495e-07
3.28978362269e-06
1.68285676672e-07
2.99856774533e-06
8.98460859417e-08
2.72413309883e-06
2.55529102588e-06
1.22904567299e-08
7.97534315365e-07
4.63988690622e-08
2.24733847567e-06
9.68636217216e-08
3.46287729228e-06
1.57972734589e-07
4.44789893565e-06
2.241689177e-07
5.2113937535e-06
2.90585624803e-07
5.7703974412e-06
3.53207427108e-07
6.1440603864e-06
4.08970155647e-07
6.35411141385e-06
4.55684160215e-07
6.42232048157e-06
4.91900846492e-07
6.37057747873e-06
5.16710737671e-07
6.21994152619e-06
5.29572334622e-07
5.99081810172e-06
5.3019650488e-07
5.70291960715e-06
5.18528704719e-07
5.37513307794e-06
4.94834047412e-07
5.02537888018e-06
4.59793965216e-07
4.6691383162e-06
4.14579734202e-07
4.31879970152e-06
3.60685940627e-07
3.98169500191e-06
2.99730379304e-07
3.66151029041e-06
2.33076968587e-07
3.35811850561e-06
1.61832020895e-07
3.07126462631e-06
8.65589207482e-08
2.80066222991e-06
2.64298809936e-06
1.20250270379e-08
7.86655858936e-07
4.53891213188e-08
2.21719322278e-06
9.4750187428e-08
3.41841840916e-06
1.54512681569e-07
4.39432037233e-06
2.1922107709e-07
5.15375226244e-06
2.84081035707e-07
5.71312084409e-06
3.4512040633e-07
6.09079373391e-06
3.99297134937e-07
6.30762275295e-06
4.44435876458e-07
6.38456650187e-06
4.7911090957e-07
6.34282391476e-06
5.02459995471e-07
6.2029465177e-06
5.14021071946e-07
5.98499039089e-06
5.13616944916e-07
5.70842550556e-06
5.01321923208e-07
5.39191906801e-06
4.77525497529e-07
5.05309852886e-06
4.42995003548e-07
4.70707909575e-06
3.98925530674e-07
4.36582678332e-06
3.46761830471e-07
4.03642134451e-06
2.88020342462e-07
3.72247300668e-06
2.23949158152e-07
3.42411493834e-06
1.55559462751e-07
3.14132469987e-06
8.33524600363e-08
2.87432156846e-06
2.72766555779e-06
1.17866668336e-08
7.7607358982e-07
4.44827208436e-08
2.18788076486e-06
9.28559984962e-08
3.3752084479e-06
1.51416579214e-07
4.34229111699e-06
2.14798632653e-07
5.09786053335e-06
2.7826730646e-07
5.65772305025e-06
3.3788085333e-07
6.03949093393e-06
3.90607331868e-07
6.26315766508e-06
4.34275931532e-07
6.34887534243e-06
4.67477650483e-07
6.31714000686e-06
4.89395759456e-07
6.18796819859e-06
4.99650179328e-07
5.98103235735e-06
4.98180681924e-07
5.71552794612e-06
4.8519614542e-07
5.40988791126e-06
4.61214190004e-07
5.08145634452e-06
4.27090153569e-07
4.74502504124e-06
3.84043838902e-07
4.41220279013e-06
3.33473885325e-07
4.08988895173e-06
2.76802308001e-07
3.78166670213e-06
2.15171263479e-07
3.48794110441e-06
1.49504094989e-07
3.20890428663e-06
8.02439594494e-08
2.94525176376e-06
2.80944242737e-06
1.15758728983e-08
7.65762654904e-07
4.36818084035e-08
2.15933101949e-06
9.11866061174e-08
3.33314090204e-06
1.48696088543e-07
4.29167814021e-06
2.10923147822e-07
5.04357017126e-06
2.73180653787e-07
5.60405226108e-06
3.31544846576e-07
5.99000931935e-06
3.82981404491e-07
6.22059498251e-06
4.25312527409e-07
6.31515837399e-06
4.57136745022e-07
6.29347792764e-06
4.77677218377e-07
6.17500383536e-06
4.86634587447e-07
5.97898605893e-06
4.84068039747e-07
5.72430976313e-06
4.70326209385e-07
5.42915670158e-06
4.46060282943e-07
5.11059727111e-06
4.12218784283e-07
4.78314317619e-06
3.70050766857e-07
4.45811203215e-06
3.20915399366e-07
4.14229278354e-06
2.66148868558e-07
3.83928856677e-06
2.06797312857e-07
3.5497867817e-06
1.43702948489e-07
3.27417935746e-06
7.72543615055e-08
3.013611876e-06
2.88846091656e-06
1.13929406884e-08
7.55697865562e-07
4.29877563391e-08
2.13147272635e-06
8.97459322207e-08
3.29210660702e-06
1.46360183867e-07
4.24234332363e-06
2.07612376135e-07
4.99072414704e-06
2.68852469987e-07
5.55194350529e-06
3.26162966136e-07
5.94218798408e-06
3.76494413579e-07
6.17979065382e-06
4.17648934005e-07
6.28330114365e-06
4.48220414463e-07
6.27176415416e-06
4.67462230685e-07
6.16402917869e-06
4.75150265712e-07
5.97888032284e-06
4.714624759e-07
5.7348517397e-06
4.56891397445e-07
5.44985243183e-06
4.32228639086e-07
5.14068639861e-06
3.98524305772e-07
4.8216274621e-06
3.57065249835e-07
4.50376837274e-06
3.09181136961e-07
4.193856558e-06
2.56132802072e-07
3.89556185388e-06
1.98880440613e-07
3.60986497871e-06
1.38191261034e-07
3.33734691806e-06
7.44021845255e-08
3.07958042817e-06
2.96488438396e-06
1.12379715635e-08
7.4585387226e-07
4.24011933554e-08
2.10423393982e-06
8.85363068945e-08
3.25199449215e-06
1.44415175544e-07
4.19414439428e-06
2.0488023228e-07
4.93915779246e-06
2.65309218144e-07
5.501219513e-06
3.21780103987e-07
5.89584830379e-06
3.71215639206e-07
6.140577606e-06
4.1138352437e-07
6.25316231369e-06
4.40858001477e-07
6.25189738359e-06
4.58908812225e-07
6.15499553089e-06
4.65376926928e-07
5.98072747374e-06
4.60554538321e-07
5.74722979255e-06
4.4508038932e-07
5.47211040575e-06
4.19894271953e-07
5.1719090565e-06
3.86159510433e-07
4.86070047143e-06
3.45213795062e-07
4.54941793669e-06
2.98371241509e-07
4.24483578877e-06
2.46830197476e-07
3.95073871402e-06
1.91475501616e-07
3.66841420419e-06
1.33004996129e-07
3.39862660043e-06
7.1706534994e-08
3.1433560658e-06
3.0388984262e-06
1.11108745493e-08
7.36205335296e-07
4.19220076285e-08
2.07754251371e-06
8.7558457708e-08
3.2126923345e-06
1.42864651387e-07
4.1469358878e-06
2.02736631312e-07
4.88869986843e-06
2.62572104423e-07
5.45169171287e-06
3.18434962495e-07
5.85079456822e-06
3.67207957253e-07
6.10276564579e-06
4.06609220684e-07
6.22457243037e-06
4.35175840088e-07
6.2337459151e-06
4.52175888593e-07
6.14782582801e-06
4.57500078234e-07
5.98451868752e-06
4.515454519e-07
5.76151059418e-06
4.35096243987e-07
5.49607129047e-06
4.09248200416e-07
5.20447013378e-06
3.75292547857e-07
4.90061508916e-06
3.34635836055e-07
4.59534261503e-06
2.88595468414e-07
4.29552212481e-06
2.38323419822e-07
4.00510446507e-06
1.84640888877e-07
3.72570203074e-06
1.28181862685e-07
3.45826317222e-06
6.91866493811e-08
3.20515979023e-06
3.11071158921e-06
1.10113694533e-08
7.26727090327e-07
4.15493546145e-08
2.051326575e-06
8.68115069279e-08
3.1740875116e-06
1.41709424659e-07
4.10057014175e-06
2.01187322793e-07
4.83917371672e-06
2.6065673523e-07
5.40316136087e-06
3.16159470605e-07
5.80681478856e-06
3.64527043816e-07
6.06614148116e-06
4.03412630967e-07
6.19733264137e-06
4.31296669057e-07
6.21714461553e-06
4.47423525083e-07
6.14240976115e-06
4.5171267801e-07
5.9902177955e-06
4.44650645982e-07
5.7777452535e-06
4.27161854727e-07
5.52187624681e-06
4.00504373023e-07
5.23859201994e-06
3.6611441773e-07
4.94165580976e-06
3.2549077965e-07
4.64186422761e-06
2.79979003946e-07
4.34624914742e-06
2.30705357903e-07
4.05898365571e-06
1.78441230296e-07
3.78203041018e-06
1.23762479169e-07
3.5165307537e-06
6.68631540388e-08
3.26523724567e-06
3.18055747789e-06
1.0938988267e-08
7.17394310842e-07
4.12816582197e-08
2.02551499259e-06
8.62929542036e-08
3.13606776264e-06
1.40947454059e-07
4.05489833473e-06
2.00233678206e-07
4.79039851717e-06
2.59572666581e-07
5.35542086338e-06
3.14978010351e-07
5.76368176043e-06
3.63220234542e-07
6.03046901246e-06
4.01872652182e-07
6.17121353626e-06
4.29338288833e-07
6.20189166295e-06
4.44812209784e-07
6.13859808299e-06
4.48215849899e-07
5.99775347767e-06
4.40102658002e-07
5.7959606751e-06
4.21525427603e-07
5.54965943974e-06
3.93907415523e-07
5.2745103417e-06
3.58847984468e-07
4.98413893831e-06
3.17966905232e-07
4.68934905066e-06
2.7267006197e-07
4.3973997572e-06
2.24085129754e-07
4.11274830704e-06
1.72951268418e-07
3.83774307591e-06
1.19792961092e-07
3.57373855355e-06
6.47587806611e-08
3.32386306983e-06
3.24869775695e-06
1.08930758744e-08
7.08182668687e-07
4.111660941e-08
2.00003784409e-06
8.59986537113e-08
3.09852196305e-06
1.40573752364e-07
4.00977157969e-06
1.99872447593e-07
4.74219067249e-06
2.59322898504e-07
5.30825532302e-06
3.1490650496e-07
5.72115446944e-06
3.63325088499e-07
5.99549004789e-06
4.02058511075e-07
6.14595436403e-06
4.29411341904e-07
6.18774535441e-06
4.44500992668e-07
6.13619631682e-06
4.47218314425e-07
6.00700991147e-06
4.38153010636e-07
5.81614825656e-06
4.18465637031e-07
5.57953714545e-06
3.89741122512e-07
5.31246637367e-06
3.53758804377e-07
5.02841061456e-06
3.12292760637e-07
4.7382120588e-06
2.6685000296e-07
4.44941519466e-06
2.18595745177e-07
4.16682898468e-06
1.68260808308e-07
3.89323600812e-06
1.16327544353e-07
3.63023922929e-06
6.28996484568e-08
3.38134683374e-06
3.31542665998e-06
1.08727913399e-08
6.99068492527e-07
4.1051167926e-08
1.97482687955e-06
8.59227993901e-08
3.06134090974e-06
1.40580310683e-07
3.96504206776e-06
2.00095535949e-07
4.69436532218e-06
2.59903361046e-07
5.26144434112e-06
3.15951430473e-07
5.67897991256e-06
3.64867739364e-07
5.96092558303e-06
4.04027327107e-07
6.12126288761e-06
4.31616206998e-07
6.17442136274e-06
4.46644263713e-07
6.13495829321e-06
4.48934186345e-07
6.01781606663e-06
4.39072496036e-07
5.83824977116e-06
4.18295907828e-07
5.61159261597e-06
3.88337422923e-07
5.35269467716e-06
3.51168047017e-07
5.07484099127e-06
3.087519204e-07
4.78891963032e-06
2.6274724022e-07
4.50280534739e-06
2.14405076908e-07
4.22172929479e-06
1.6448200476e-07
3.94897205521e-06
1.1343265563e-07
3.68644087977e-06
6.13169933649e-08
3.43804167074e-06
3.3810775388e-06
1.08771099234e-08
6.90028924194e-07
4.10815677711e-08
1.94981598065e-06
8.60579207355e-08
3.02441811295e-06
1.40956041096e-07
3.92056425829e-06
2.00889804854e-07
4.646737984e-06
2.61302424818e-07
5.21476408571e-06
3.18108809712e-07
5.63689538847e-06
3.67861070575e-07
5.92647781225e-06
4.07821211874e-07
6.09681616566e-06
4.36038947834e-07
6.16159091031e-06
4.51386950798e-07
6.13458010423e-06
4.53578540262e-07
6.02993421014e-06
4.4314907473e-07
5.86214045512e-06
4.21366835324e-07
5.64585601016e-06
3.90085006637e-07
5.3954042817e-06
3.51467344747e-07
5.12381218949e-06
3.0770184475e-07
4.84198852143e-06
2.6065638033e-07
4.55815928264e-06
2.11731718886e-07
4.2780442934e-06
1.61760122712e-07
4.00550129508e-06
1.1119282526e-07
3.74282445886e-06
6.00496262509e-08
3.49435683499e-06
3.44603229111e-06
1.09048250975e-08
6.81042073629e-07
4.12033248486e-08
1.92494161546e-06
8.6394887484e-08
2.98765059133e-06
1.41686741303e-07
3.87619610784e-06
2.02236912252e-07
4.59912631525e-06
2.63500456486e-07
5.16798963036e-06
3.21363213426e-07
5.59463131005e-06
3.72302795081e-07
5.89183299356e-06
4.13463980404e-07
6.07226257194e-06
4.42746325051e-07
6.14888041287e-06
4.58857931643e-07
6.13469529597e-06
4.61360198723e-07
6.04304852936e-06
4.50682174073e-07
5.88760996937e-06
4.28065206945e-07
5.682278972e-06
3.95436123114e-07
5.44075159238e-06
3.55134720391e-07
5.17569691633e-06
3.09597283743e-07
4.89797754072e-06
2.60964392516e-07
4.61615356427e-06
2.10868198669e-07
4.33648265437e-06
1.60289884891e-07
4.06348914387e-06
1.09719660727e-07
3.79996938285e-06
5.91474796202e-08
3.55077637415e-06
3.51073494559e-06
1.09545513696e-08
6.72087172535e-07
4.14112507739e-08
1.90014328548e-06
8.69229333524e-08
2.9509396612e-06
1.42755100404e-07
3.83180032159e-06
2.04113224987e-07
4.55135197133e-06
2.66469478014e-07
5.12089754608e-06
3.25686889205e-07
5.55191453487e-06
3.78173594807e-07
5.85666526172e-06
4.2095768526e-07
6.04722531993e-06
4.51780079874e-07
6.13587317008e-06
4.69161732913e-07
6.1348722842e-06
4.72471400127e-07
6.05675522091e-06
4.61972431473e-07
5.91434251456e-06
4.38807690048e-07
5.72070436779e-06
4.04909172769e-07
5.48880354561e-06
3.62749886608e-07
5.23082380998e-06
3.15018177514e-07
4.95746654782e-06
2.64185974012e-07
4.67755359948e-06
2.12215286046e-07
4.39789085676e-06
1.60341144361e-07
4.12375429329e-06
1.09166216863e-07
3.85859160549e-06
5.86770847998e-08
3.60788766952e-06
3.57571153775e-06
1.1024729186e-08
6.63144725632e-07
4.1699479459e-08
1.87536395653e-06
8.76297148013e-08
2.9141917008e-06