/*--------------------------------*- C++ -*----------------------------------*\
| =========                 |                                                 |
| \\      /  F ield         | OpenFOAM: The Open Source CFD Toolbox           |
|  \\    /   O peration     | Version:  2112                                  |
|   \\  /    A nd           | Website:  www.openfoam.com                      |
|    \\/     M anipulation  |                                                 |
\*---------------------------------------------------------------------------*/
FoamFile
{
    version     2.0;
    format      ascii;
    arch        "LSB;label=64;scalar=64";
    class       surfaceScalarField;
    location    "0.0051";
    object      phi.particles;
}
// * * * * * * * * * * * * * * * * * * * * * * * * * * * * * * * * * * * * * //

dimensions      [0 3 -1 0 0 0 0];

oriented        oriented;

internalField   nonuniform List<scalar> 
10912
(
1.95141566148e-08
1.13958719904e-06
7.36284969877e-08
3.19707165831e-06
1.5240017011e-07
4.86218007407e-06
2.4569027265e-07
6.13162428193e-06
3.43151049562e-07
7.01716203008e-06
4.36881200322e-07
7.55962631939e-06
5.2034330128e-07
7.80367174929e-06
5.88890209665e-07
7.80140585408e-06
6.39551004675e-07
7.60268949319e-06
6.71023069917e-07
7.25474193273e-06
6.83423796343e-07
6.798677088e-06
6.77945655858e-07
6.26909820701e-06
6.57213225084e-07
5.69336461229e-06
6.25012068896e-07
5.09137013124e-06
5.86300053793e-07
4.47603628311e-06
5.45476351611e-07
3.85430874775e-06
5.08414977449e-07
3.22899144201e-06
4.7740853647e-07
2.60217753244e-06
4.51744043804e-07
1.98001641393e-06
4.16701053068e-07
1.38093734356e-06
3.51179793994e-07
8.3053300228e-07
2.12808362811e-07
3.61200935353e-07
-4.81978518698e-08
1.95188669003e-08
1.1179874728e-06
7.37340597963e-08
3.13748792546e-06
1.53127883539e-07
4.77643929485e-06
2.47885547412e-07
6.03180339667e-06
3.4794632456e-07
6.9151931192e-06
4.45213889886e-07
7.46480599483e-06
5.32754800408e-07
7.72303057695e-06
6.0541475551e-07
7.73918824896e-06
6.59649332476e-07
7.5608424733e-06
6.9362244574e-07
7.23315066637e-06
7.0718942387e-07
6.79551030942e-06
7.01861417826e-07
6.28114646474e-06
6.81169512688e-07
5.71605839159e-06
6.50394810296e-07
5.11924875301e-06
6.16315161393e-07
4.50311365558e-06
5.8569794612e-07
3.87552492359e-06
5.63714752271e-07
3.2414704982e-06
5.49069192292e-07
2.61019225835e-06
5.2941961143e-07
1.99741297983e-06
4.80422888625e-07
1.43362145191e-06
3.7113290267e-07
9.4720023779e-07
1.90081984453e-07
5.5303611863e-07
1.52295313053e-07
1.96001875338e-08
1.09972278269e-06
7.40409013678e-08
3.08672915287e-06
1.53853508897e-07
4.70179390763e-06
2.49192934876e-07
5.94218982769e-06
3.50043917806e-07
6.8196889114e-06
4.48216895771e-07
7.37085986412e-06
5.36814236824e-07
7.63704820512e-06
6.10854621468e-07
7.66607740836e-06
6.67103220785e-07
7.50410898032e-06
7.04133753445e-07
7.19481050608e-06
7.22231907878e-07
6.77606815149e-06
7.23246542881e-07
6.27959595993e-06
7.10564704589e-07
5.72970805789e-06
6.88506812744e-07
5.14409464555e-06
6.61647098406e-07
4.53441950291e-06
6.33055780643e-07
3.90940223559e-06
6.02454225992e-07
3.27695790947e-06
5.63053599948e-07
2.65220532296e-06
5.01885392019e-07
2.05781548605e-06
4.05702916988e-07
1.5244706719e-06
2.75198674358e-07
1.06929363253e-06
1.35560865116e-07
6.81606465553e-07
2.76977112463e-07
1.94765847684e-08
1.08051133218e-06
7.36030031945e-08
3.03338637916e-06
1.53082194486e-07
4.6234154401e-06
2.48222339383e-07
5.84830754803e-06
3.49226382767e-07
6.71995592245e-06
4.47971339285e-07
7.27338904049e-06
5.37645913835e-07
7.54864181991e-06
6.13323999109e-07
7.59169909345e-06
6.71801144982e-07
7.4469401286e-06
7.11649731794e-07
7.15619649943e-06
7.33115694095e-07
6.7555918517e-06
7.38014603137e-07
6.27522162675e-06
7.29576670636e-07
5.73801550288e-06
7.11827362663e-07
5.1609929235e-06
6.8871941305e-07
4.55611058951e-06
6.62493619178e-07
3.93410290068e-06
6.3142666421e-07
3.30706856055e-06
5.88501344674e-07
2.69567572393e-06
5.23182488836e-07
2.12571117978e-06
4.29010564423e-07
1.6238022517e-06
3.10189621359e-07
1.19510280297e-06
1.74879565192e-07
8.25454786334e-07
4.60331992472e-07
1.92806199192e-08
1.06167877464e-06
7.28923066394e-08
2.98109006391e-06
1.51719980721e-07
4.54650419614e-06
2.4624865409e-07
5.75606133126e-06
3.46903533846e-07
6.62167593783e-06
4.45656610011e-07
7.17692168809e-06
5.358139979e-07
7.46049680108e-06
6.12553239936e-07
7.51661320954e-06
6.72783981423e-07
7.38795836295e-06
7.15195149001e-07
7.11467382196e-06
7.40096727451e-07
6.73131943588e-06
7.49238124236e-07
6.26660886039e-06
7.45403548349e-07
5.74244242593e-06
7.31632017683e-07
5.17552540727e-06
7.10113718054e-07
4.57851056279e-06
6.80699538762e-07
3.96426089133e-06
6.39383077342e-07
3.34849008842e-06
5.79100002046e-07
2.7547345545e-06
4.9351362084e-07
2.20824144446e-06
3.83623265023e-07
1.72858821635e-06
2.57974794325e-07
1.31401198132e-06
1.28839081881e-07
9.47084016144e-07
5.81409321508e-07
1.90114515373e-08
1.04312230446e-06
7.19032204637e-08
2.92954216973e-06
1.49756508686e-07
4.47058587745e-06
2.4326542731e-07
5.66483286427e-06
3.43105319373e-07
6.52417854468e-06
4.41398057536e-07
7.08086473282e-06
5.31610186929e-07
7.37225775303e-06
6.09045287028e-07
7.44084027476e-06
6.70708220908e-07
7.32762073774e-06
7.15331173314e-07
7.07106812453e-06
7.43164186953e-07
6.70422322899e-06
7.55746990054e-07
6.25452430899e-06
7.5538989172e-07
5.74309409263e-06
7.44425613379e-07
5.18664765128e-06
7.24121722983e-07
4.59892006279e-06
6.93606126059e-07
3.99502900187e-06
6.49023214564e-07
3.39367647876e-06
5.85393856375e-07
2.81969092154e-06
4.99756315273e-07
2.2961323984e-06
3.94943383165e-07
1.8368740096e-06
2.76571617145e-07
1.43668434387e-06
1.48565600102e-07
1.08007558366e-06
7.34560978225e-07
1.86837831867e-08
1.02489577574e-06
7.06913060881e-08
2.87889985839e-06
1.47314322309e-07
4.39593053641e-06
2.39481517152e-07
5.5750012078e-06
3.38135300476e-07
6.42794294198e-06
4.35581424711e-07
6.98574988201e-06
5.25466710894e-07
7.28445123375e-06
6.03231790312e-07
7.36484210315e-06
6.65972767997e-07
7.26629498999e-06
7.12444823418e-07
7.02568684357e-06
7.42799370796e-07
6.67467322328e-06
7.58294179062e-07
6.23961977597e-06
7.60664647357e-07
5.74115377642e-06
7.51382524172e-07
5.19624704921e-06
7.3060189449e-07
4.6198509027e-06
6.96524541956e-07
4.02899710121e-06
6.4529284893e-07
3.44426112152e-06
5.73558497793e-07
2.89005201348e-06
4.80945776609e-07
2.38636089701e-06
3.7236006245e-07
1.94223836066e-06
2.53764648634e-07
1.55122668568e-06
1.30819910348e-07
1.19892608252e-06
8.61164781003e-07
1.83109177869e-08
1.0070517946e-06
6.93060012523e-08
2.82931042162e-06
1.4449760113e-07
4.32276503381e-06
2.35066086135e-07
5.48684895977e-06
3.32230490147e-07
6.33329104877e-06
4.28505190549e-07
6.89191089556e-06
5.1772967802e-07
7.19741274907e-06
5.95486149082e-07
7.28895978234e-06
6.58950811057e-07
7.20434758843e-06
7.06872744208e-07
6.97894985369e-06
7.39265350522e-07
6.6431620802e-06
7.57079920264e-07
6.22244770243e-06
7.61541385301e-07
5.7371426178e-06
7.53502751703e-07
5.20462252717e-06
7.32548469933e-07
4.64106265113e-06
6.9681369883e-07
4.06502877876e-06
6.43287558814e-07
3.4981532632e-06
5.70338322528e-07
2.96367162925e-06
4.78926043472e-07
2.47872936025e-06
3.73566682622e-07
2.04912443994e-06
2.58204656062e-07
1.6683366151e-06
1.35744494414e-07
1.32346366135e-06
9.98471321329e-07
1.79039926909e-08
9.89625416405e-07
6.77892016053e-08
2.78087332172e-06
1.41395274635e-07
4.2512468115e-06
2.30165044207e-07
5.40058090855e-06
3.25597882022e-07
6.24047179918e-06
4.20432732359e-07
6.79962631362e-06
5.08706484638e-07
7.11144569366e-06
5.86141362905e-07
7.21352194977e-06
6.49982086935e-07
7.14214186945e-06
6.9895063664e-07
6.93127497909e-06
7.32897496249e-07
6.61018932251e-06
7.524494277e-07
6.20361032849e-06
7.58332545936e-07
5.73174336841e-06
7.5082209621e-07
5.21243513372e-06
7.29008285529e-07
4.66295281031e-06
6.90985516849e-07
4.10290020537e-06
6.34407682247e-07
3.55418958174e-06
5.58845070969e-07
3.03833541454e-06
4.66194824192e-07
2.56993676458e-06
3.61177390121e-07
2.1524431672e-06
2.47641691872e-07
1.77974441196e-06
1.2890386257e-07
1.44023614415e-06
1.12525417769e-06
1.74728075458e-08
9.72642662403e-07
6.61778927418e-08
2.73366313746e-06
1.38085564284e-07
4.18149599837e-06
2.24906209908e-07
5.31635728342e-06
3.18418134859e-07
6.14968642883e-06
4.1159313641e-07
6.70912986517e-06
4.98664851708e-07
7.02681603796e-06
5.75490715812e-07
7.13883100072e-06
6.39373569586e-07
7.08002664492e-06
6.88995687186e-07
6.88306973672e-06
7.24039902615e-07
6.57622651842e-06
7.44832921754e-07
6.18362299632e-06
7.5169345597e-07
5.72544232092e-06
7.44505596534e-07
5.22000844438e-06
7.2216618217e-07
4.68550206414e-06
6.83043367147e-07
4.142153331e-06
6.25566243659e-07
3.61167734797e-06
5.50187665825e-07
3.1137959707e-06
4.59118045764e-07
2.66105901346e-06
3.56540132724e-07
2.25533137156e-06
2.45471104908e-07
1.89105543911e-06
1.28438179856e-07
1.55773023051e-06
1.25373072385e-06
1.70258318249e-08
9.56121251165e-07
6.450407868e-08
2.68773135404e-06
1.34635937533e-07
4.11359774792e-06
2.19399600897e-07
5.23429600946e-06
3.10846866137e-07
6.06109058523e-06
4.02184396634e-07
6.62061271344e-06
4.87838205131e-07
6.94375425239e-06
5.63794491974e-07
7.06516262793e-06
6.27405475608e-07
7.01833095136e-06
6.77306609263e-07
6.83472253989e-06
7.13015548219e-07
6.54171719595e-06
7.34583225047e-07
6.16295479284e-06
7.41981032623e-07
5.71866027569e-06
7.34790461918e-07
5.2275901559e-06
7.11804641914e-07
4.70861992609e-06
6.71660025129e-07
4.18222884646e-06
6.13379560392e-07
3.66957808036e-06
5.38000575915e-07
3.18862080757e-06
4.47955650448e-07
2.75021850017e-06
3.47235696669e-07
2.35514087482e-06
2.38688669069e-07
1.99842573358e-06
1.24775239316e-07
1.6706600288e-06
1.37730042494e-06
1.65702912071e-08
9.4007170839e-07
6.27951059293e-08
2.64310945864e-06
1.31104005735e-07
4.04760715993e-06
2.13739282205e-07
5.15447880734e-06
3.03017738575e-07
5.97480069201e-06
3.92377949137e-07
6.53422864538e-06
4.76431422006e-07
6.86245781114e-06
5.51286243208e-07
6.99276430601e-06
6.14337824245e-07
6.95735803408e-06
6.64174378398e-07
6.78659261018e-06
7.0016281643e-07
6.50706323616e-06
7.22120255074e-07
6.1420119322e-06
7.29754020967e-07
5.71173562577e-06
7.22463553041e-07
5.23535418738e-06
6.9907070747e-07
4.7322325955e-06
6.58538821746e-07
4.2228254974e-06
6.00401958904e-07
3.72755845643e-06
5.26065447426e-07
3.26276995888e-06
4.37972698478e-07
2.83795867847e-06
3.39751434829e-07
2.45313662611e-06
2.33892525618e-07
2.10388899917e-06
1.22555714426e-07
1.78177687453e-06
1.49929502264e-06
1.61122979293e-08
9.2449850118e-07
6.10741639077e-08
2.59981203836e-06
1.2753871515e-07
3.98355386145e-06
2.08005526466e-07
5.07695639576e-06
2.95045722754e-07
5.89089888524e-06
3.82323042493e-07
6.45009756592e-06
4.6462588215e-07
6.78309248044e-06
5.38177281587e-07
6.92185398032e-06
6.00411662565e-07
6.89738166619e-06
6.49873449867e-07
6.73900533181e-06
6.85797222856e-07
6.47262239147e-06
7.07806499869e-07
6.12114190746e-06
7.15409370516e-07
5.70493568789e-06
7.07895952112e-07
5.24340117529e-06
6.84164249921e-07
4.75620077089e-06
6.43466246404e-07
4.26355503118e-06
5.85720428342e-07
3.78504723014e-06
5.12563143959e-07
3.33555871579e-06
4.26433749678e-07
2.92346244364e-06
3.30725765231e-07
2.54825880758e-06
2.27751687029e-07
2.20605910096e-06
1.19507165665e-07
1.88938653981e-06
1.61790440493e-06
1.56569974976e-08
9.09400996302e-07
5.93608487701e-08
2.55783938021e-06
1.23981615154e-07
3.9214457727e-06
2.02266982829e-07
5.00175268917e-06
2.87030183885e-07
5.80943698656e-06
3.72150581898e-07
6.36830827866e-06
4.52583645509e-07
6.70579340192e-06
5.24660560901e-07
6.85261933644e-06
5.85852454326e-07
6.83864397195e-06
6.34666954622e-07
6.69224991195e-06
6.70229184162e-07
6.4387085361e-06
6.92012378619e-07
6.10064117946e-06
6.99389239051e-07
5.69847992243e-06
6.91608461977e-07
5.2518131618e-06
6.67688443115e-07
4.78044075717e-06
6.27147741298e-07
4.30421234571e-06
5.70205093536e-07
3.84183535706e-06
4.98627969907e-07
3.40690237412e-06
4.14792035911e-07
3.00684923503e-06
3.21831804356e-07
2.64083912646e-06
2.21848159782e-07
2.30546483615e-06
1.16647966904e-07
1.99415479241e-06
1.73381612958e-06
1.52087247089e-08
8.94774265571e-07
5.76717506804e-08
2.51717965008e-06
1.20468115814e-07
3.86127222566e-06
1.96582721003e-07
4.92886824255e-06
2.79057654674e-07
5.73043978304e-06
3.61976356075e-07
6.28892083168e-06
4.40450661841e-07
6.63066616755e-06
5.10913122525e-07
6.78521766617e-06
5.70870536406e-07
6.78135452418e-06
6.18802642387e-07
6.6465787366e-06
6.53748929466e-07
6.40559282881e-06
6.75072175292e-07
6.08075905544e-06
6.82061171414e-07
5.69254328457e-06
6.73967757859e-07
5.26064197001e-06
6.49944757799e-07
4.80486047256e-06
6.09736808745e-07
4.34458776681e-06
5.53788420761e-07
3.89765454758e-06
4.83938678099e-07
3.4765149074e-06
4.02493483338e-07
3.08781593499e-06
3.12368763339e-07
2.7305234303e-06
2.15498790241e-07
2.40168649997e-06
1.13531718114e-07
2.09560680618e-06
1.84655057794e-06
1.47711437605e-08
8.8060975444e-07
5.60209716492e-08
2.47781070288e-06
1.17028555193e-07
3.80300654527e-06
1.91003902553e-07
4.8582831033e-06
2.7120402122e-07
5.65390780082e-06
3.51903475834e-07
6.21196861833e-06
4.28359100432e-07
6.55778802666e-06
4.97097960626e-07
6.7197762964e-06
5.55662338488e-07
6.72569050326e-06
6.02514136327e-07
6.6022083213e-06
6.36631231784e-07
6.37350720135e-06
6.57303018128e-07
6.06170594585e-06
6.63778679397e-07
5.68727174566e-06
6.55348031428e-07
5.26993574949e-06
6.31306129868e-07
4.82940666094e-06
5.91591724625e-07
4.38456288262e-06
5.36821923871e-07
3.95238284721e-06
4.68864366751e-07
3.5443192861e-06
3.89937767787e-07
3.16635301054e-06
3.02743565047e-07
2.8173596738e-06
2.0905239224e-07
2.49481428233e-06
1.10362442483e-07
2.19384577483e-06
1.95616724148e-06
1.43473700847e-08
8.66895829922e-07
5.4420568944e-08
2.43970157361e-06
1.13689094573e-07
3.74660818156e-06
1.85575144871e-07
4.78995919408e-06
2.63536285945e-07
5.57981967595e-06
3.42024313197e-07
6.13746029277e-06
4.16429191901e-07
6.48720917208e-06
4.83365451784e-07
6.65639337354e-06
5.40411009265e-07
6.67179744021e-06
5.86020151599e-07
6.55932082514e-06
6.1913188906e-07
6.34264758679e-06
6.38994886028e-07
6.04365847811e-06
6.4485432134e-07
5.68278700872e-06
6.36061647957e-07
5.27973624291e-06
6.1205316058e-07
4.85404084845e-06
5.72931631392e-07
4.4240450912e-06
5.19445617036e-07
4.00591177227e-06
4.53463555172e-07
3.61021414795e-06
3.77111739521e-07
3.24237154887e-06
2.92892497606e-07
2.90125715226e-06
2.02429543584e-07
2.58474717896e-06
1.07084593457e-07
2.28875516989e-06
2.0625239243e-06
1.39400631573e-08
8.53618236353e-07
5.28808896319e-08
2.40281372848e-06
1.10472380084e-07
3.69202451618e-06
1.80335515963e-07
4.72384236233e-06
2.56113845052e-07
5.50813424112e-06
3.32421911182e-07
6.06538155132e-06
4.04770584718e-07
6.41895408359e-06
4.69854491801e-07
6.59513889197e-06
5.25287240209e-07
6.6197903765e-06
5.69525190695e-07
6.51806609783e-06
6.01489305769e-07
6.31317770303e-06
6.20415935557e-07
6.026765499e-06
6.25575262115e-07
5.67919437458e-06
6.16397644499e-07
5.29008771306e-06
5.92457450936e-07
4.87875038154e-06
5.53997752096e-07
4.46298862549e-06
5.01868223449e-07
4.05819476304e-06
4.37917736983e-07
3.67417286095e-06
3.64173954211e-07
3.31587267666e-06
2.82948723331e-07
2.98223429193e-06
1.95728900389e-07
2.67150906678e-06
1.03750318573e-07
2.38034951413e-06
2.16559206073e-06
1.35514985507e-08
8.40760478866e-07
5.14108307515e-08
2.36710212696e-06
1.07398058623e-07
3.63919241038e-06
1.75319310971e-07
4.65986416265e-06
2.48989507513e-07
5.43879236082e-06
3.23171147399e-07
5.99569675717e-06
3.93483531037e-07
6.35302283508e-06
4.56693593718e-07
6.5360557904e-06
5.10450170213e-07
6.56975516719e-06
5.53220221585e-07
6.47856377874e-06
5.83924950979e-07
6.2852324392e-06
6.01812472848e-07
6.01115254574e-06
6.06201160227e-07
5.67658677771e-06
5.96612570945e-07
5.3010374394e-06
5.72754661631e-07
4.90354124069e-06
5.34991672887e-07
4.50137601685e-06
4.84251434701e-07
4.10921369851e-06
4.22348895597e-07
3.73618971445e-06
3.5121033678e-07
3.38686647392e-06
2.72967479783e-07
3.06030640866e-06
1.88982278845e-07
2.75511092409e-06
1.00374212892e-07
2.46862689593e-06
2.26533443229e-06
1.31836190755e-08
8.28304155496e-07
5.00180248988e-08
2.33251614883e-06
1.04483146579e-07
3.58803956797e-06
1.70556612923e-07
4.59794344289e-06
2.42210246132e-07
5.37171857036e-06
3.14339623475e-07
5.92835041962e-06
3.82659845778e-07
6.28939232658e-06
4.44001843473e-07
6.47916105079e-06
4.96048336448e-07
6.52174980392e-06
5.37283751424e-07
6.44090534642e-06
5.66644959696e-07
6.25892098455e-06
5.83411862276e-07
5.99692588118e-06
5.86969635758e-07
5.67504878983e-06
5.76940322778e-07
5.31263841991e-06
5.53161419389e-07
4.92843905818e-06
5.16103780524e-07
4.53921961494e-06
4.66756170787e-07
4.15898543306e-06
4.06889150374e-07
3.79629619697e-06
3.38326339054e-07
3.45540111047e-06
2.63028883681e-07
3.13552819246e-06
1.82244607454e-07
2.83560365213e-06
9.69849380749e-08
2.55362506108e-06
2.3617518805e-06
1.28380719688e-08
8.16229250966e-07
4.87089773574e-08
2.29900041804e-06
1.01742307348e-07
3.53848575177e-06
1.66073723858e-07
4.53798776726e-06
2.3581778709e-07
5.30682254456e-06
3.05988389461e-07
5.86326852408e-06
3.7238372229e-07
6.22801740952e-06
4.31889787185e-07
6.4244467103e-06
4.82220653784e-07
6.47580562961e-06
5.21883020859e-07
6.40515592585e-06
5.49841764876e-07
6.23432943659e-06
5.65424784924e-07
5.98417561188e-06
5.68098961455e-07
5.67465927776e-06
5.57594194125e-07
5.32495021061e-06
5.33874437955e-07
4.95348709354e-06
4.97506375981e-07
4.57655659967e-06
4.49526903511e-07
4.20755406804e-06
3.91654992845e-07
3.85455006218e-06
3.25612328129e-07
3.52154776658e-06
2.5319932276e-07
3.20797416915e-06
1.75560380676e-07
2.91305550666e-06
9.36059494611e-08
2.6353985511e-06
2.45486603119e-06
1.25162376979e-08
8.04514400408e-07
4.74891749358e-08
2.26649554338e-06
9.9188075151e-08
3.49044387946e-06
1.61893516819e-07
4.47989470152e-06
2.29849105777e-07
5.24400041013e-06
2.98172568562e-07
5.8003597175e-06
3.62732474367e-07
6.16883187695e-06
4.20460295472e-07
6.37188073338e-06
4.6909747453e-07
6.43192834444e-06
5.07175425412e-07
6.3713557353e-06
5.33696123492e-07
6.21152284421e-06
5.48048115554e-07
5.97297808987e-06
5.4979188824e-07
5.67549348936e-06
5.3877148774e-07
5.33803994125e-06
5.15075657281e-07
4.97874591449e-06
4.79359476294e-07
4.61344799885e-06
4.3269886593e-07
4.2549904314e-06
3.7675678174e-07
3.91103610856e-06
3.13155439694e-07
3.5854032569e-06
2.43544336772e-07
3.27774313513e-06
1.68974549668e-07
2.98755805992e-06
9.02614757302e-08
2.71402515092e-06
2.54472426772e-06
1.22192498659e-08
7.9313713184e-07
4.63631619536e-08
2.23493879943e-06
9.68310128729e-08
3.44382103056e-06
1.5803568623e-07
4.42355299616e-06
2.24336772215e-07
5.1831359501e-06
2.90941793734e-07
5.73951638606e-06
3.53777065196e-07
6.11174934242e-06
4.09809220633e-07
6.3214077362e-06
4.56801486384e-07
6.39009875528e-06
4.93309835676e-07
6.33952110296e-06
5.18379077983e-07
6.19054660963e-06
5.31467639626e-07
5.96339755115e-06
5.3223897957e-07
5.67762445246e-06
5.20656984932e-07
5.35198293443e-06
4.96935085218e-07
5.00429300169e-06
4.61812361499e-07
4.64997744723e-06
4.16397963121e-07
4.30139024759e-06
3.6229700189e-07
3.96586376574e-06
3.01036340392e-07
3.64708705528e-06
2.34124330623e-07
3.34495466609e-06
1.62528111846e-07
3.05922245596e-06
8.69732040416e-08
2.7896021211e-06
2.63139786663e-06
1.19480111669e-08
7.82074090435e-07
4.53346021257e-08
2.20426475571e-06
9.46798394094e-08
3.39851937816e-06
1.54516945431e-07
4.36884368487e-06
2.1930921788e-07
5.12410171903e-06
2.84340541175e-07
5.68061564193e-06
3.45582514825e-07
6.05666401605e-06
4.00025948484e-07
6.27294953607e-06
4.45448544794e-07
6.35027321687e-06
4.80427921652e-07
6.30964497385e-06
5.04053976705e-07
6.17142719457e-06
5.15860872666e-07
5.95548698104e-06
5.15622096764e-07
5.68112377155e-06
5.03426708642e-07
5.36686318009e-06
4.79614373926e-07
5.03022281303e-06
4.45006686777e-07
4.68625095835e-06
4.00743424657e-07
4.34687377539e-06
3.48372607656e-07
4.01916665327e-06
2.8933147556e-07
3.70674089954e-06
2.24997035775e-07
3.40974871937e-06
1.56261510269e-07
3.12817889798e-06
8.37640744389e-08
2.86224494529e-06
2.71497913819e-06
1.17032068282e-08
7.71301247263e-07
4.44063302601e-08
2.174405862e-06
9.27415337723e-08
3.35443705816e-06
1.51351183009e-07
4.3156411152e-06
2.14790935166e-07
5.06676009685e-06
2.78408359376e-07
5.62352025342e-06
3.38208190386e-07
6.00345138768e-06
3.91193822382e-07
6.22640553227e-06
4.35148400182e-07
6.31238373707e-06
4.68665412149e-07
6.28169686069e-06
4.90878489042e-07
6.15417206193e-06
5.01399911769e-07
5.94928815176e-06
5.00117932129e-07
5.68606176318e-06
4.87251758718e-07
5.38277352465e-06
4.63270477102e-07
5.05664700825e-06
4.29079599703e-07
4.72239713797e-06
3.85850191426e-07
4.39158592004e-06
3.35076550811e-07
4.07110249311e-06
2.78113524177e-07
3.76452857887e-06
2.16216369032e-07
3.47228541646e-06
1.50210582113e-07
3.19457664826e-06
8.06524742222e-08
2.93208799738e-06
2.7955818419e-06
1.14853148913e-08
7.60794095747e-07
4.35803912738e-08
2.14529299971e-06
9.10214091509e-08
3.31146899415e-06
1.48549560741e-07
4.26381394177e-06
2.1080258165e-07
5.01096431418e-06
2.73179970963e-07
5.56807955325e-06
3.31707917378e-07
5.95196886466e-06
3.83390362369e-07
6.1816529394e-06
4.26005207571e-07
6.27633775208e-06
4.58153148619e-07
6.25562221795e-06
4.79006445269e-07
6.13876881333e-06
4.88254185129e-07
5.94483075258e-06
4.85901550446e-07
5.69250682443e-06
4.72302296881e-07
5.39981546641e-06
4.48059641017e-07
5.08369474347e-06
4.14167380409e-07
4.75856786451e-06
3.71832030108e-07
4.43569705238e-06
3.22500417771e-07
4.12185380818e-06
2.67453884227e-07
3.82063642099e-06
2.07835528568e-07
3.53274520415e-06
1.44411839613e-07
3.25858376647e-06
7.76585385321e-08
2.99928369877e-06
2.87334100459e-06
1.12946126954e-08
7.50527839008e-07
4.28580636613e-08
2.11685600933e-06
8.95231510345e-08
3.26950769504e-06
1.46120550759e-07
4.21322610264e-06
2.0736098234e-07
4.95655948795e-06
2.68685210538e-07
5.51413037428e-06
3.26129873828e-07
5.90205641621e-06
3.76687203312e-07
6.13854692764e-06
4.18117701424e-07
6.24201761445e-06
4.49017780507e-07
6.23134125112e-06
4.68589347885e-07
6.12518348053e-06
4.76592945704e-07
5.94213052937e-06
4.73149821514e-07
5.70052388017e-06
4.58751614311e-07
5.41809835996e-06
4.34141640619e-07
5.11151285862e-06
4.00409387846e-07
4.79493932233e-06
3.58804816945e-07
4.47940451916e-06
3.10736773694e-07
4.17162950175e-06
2.57423850072e-07
3.87527469246e-06
1.99906711882e-07
3.59132987075e-06
1.38900056332e-07
3.32038762624e-06
7.48006416814e-08
3.06400223205e-06
2.94841107245e-06
1.1131184872e-08
7.40477566842e-07
4.22398880319e-08
2.08902419098e-06
8.82488629456e-08
3.22844402402e-06
1.44069973239e-07
4.16373778525e-06
2.04479125599e-07
4.90338367323e-06
2.64948950372e-07
5.46149801937e-06
3.21516440654e-07
5.85353724041e-06
3.71149945925e-07
6.09692070868e-06
4.11579243009e-07
6.2092798184e-06
4.41382306433e-07
6.20874716382e-06
4.59777751028e-07
6.11335792073e-06
4.66587777149e-07
5.94118625928e-06
4.62045090947e-07
5.7101716567e-06
4.46780739874e-07
5.43773771054e-06
4.21684865822e-07
5.14026564987e-06
3.8795307179e-07
4.83171320622e-06
3.46891008765e-07
4.52293482212e-06
2.99882852629e-07
4.22066739397e-06
2.48097546559e-07
3.92868002989e-06
1.92483505892e-07
3.64826455989e-06
1.33710576268e-07
3.38019642013e-06
7.20974430347e-08
3.12643272787e-06
3.02096718832e-06
1.09949259533e-08
7.3061842814e-07
4.17256744005e-08
2.0617267952e-06
8.71990651501e-08
3.18816796606e-06
1.42400955355e-07
4.11520641701e-06
2.02166030539e-07
4.85126898326e-06
2.61990816396e-07
5.4099973522e-06
3.17903750945e-07
5.80621855202e-06
3.66837592681e-07
6.05658567107e-06
4.06477310076e-07
6.17795410989e-06
4.35365941531e-07
6.18770395984e-06
4.52721927982e-07
6.10320634412e-06
4.58414446125e-07
5.94197549648e-06
4.52778444316e-07
5.72149853141e-06
4.36583001222e-07
5.45885220435e-06
4.10871712193e-07
5.17013388967e-06
3.76959509596e-07
4.86911789114e-06
3.36224638614e-07
4.56654645768e-06
2.9004453839e-07
4.26923787138e-06
2.39554750255e-07
3.98111907485e-06
1.85622659907e-07
3.7038007934e-06
1.28880122762e-07
3.4382412757e-06
6.95678647539e-08
3.18678445114e-06
3.09120552087e-06
1.08855443687e-08
7.20925796705e-07
4.13145143315e-08
2.03489349871e-06
8.63727017179e-08
3.14856938758e-06
1.41113898182e-07
4.06748767618e-06
2.00426613337e-07
4.80004278036e-06
2.59824894166e-07
5.35943400457e-06
3.15321177284e-07
5.7598925361e-06
3.63801831484e-07
6.01733164471e-06
4.02892713886e-07
6.14784256357e-06
4.31083574499e-07
6.16804390312e-06
4.47572055227e-07
6.09461101525e-06
4.52254376377e-07
5.94444892827e-06
4.45552884086e-07
5.73453661987e-06
4.28368974232e-07
5.48155895712e-06
4.01904905518e-07
5.20131252313e-06
3.67610297498e-07
4.90740914413e-06
3.26957842552e-07
4.61053326668e-06
2.8134179234e-07
4.31764879445e-06
2.31884875305e-07
4.03289369428e-06
1.79386633889e-07
3.75822104736e-06
1.24448250288e-07
3.49477979165e-06
6.72319240978e-08
3.24528913607e-06
3.15934480868e-06
1.08025647696e-08
7.11375433131e-07
4.10047866414e-08
2.00845487251e-06
8.57671335544e-08
3.10953879989e-06
1.40206416994e-07
4.02043654092e-06
1.9926151024e-07
4.74952896115e-06
2.58459335838e-07
5.30960576455e-06
3.13790642195e-07
5.71433754312e-06
3.62086010122e-07
5.97892743429e-06
4.00898324326e-07
6.11871881468e-06
4.28644526425e-07
6.14956482103e-06
4.44477520211e-07
6.08741727642e-06
4.48295225634e-07
5.94852335835e-06
4.40585879047e-07
5.74929378974e-06
4.22371377069e-07
5.50596638403e-06
3.95014491259e-07
5.23400630989e-06
3.60115751264e-07
4.94686974405e-06
3.19269018691e-07
4.65522800435e-06
2.73915674179e-07
4.36625175393e-06
2.25192286594e-07
4.08434812562e-06
1.73847226517e-07
3.81184523302e-06
1.20459533512e-07
3.55010109287e-06
6.51116453449e-08
3.30220460333e-06
3.22562885154e-06
1.07453296954e-08
7.01943643325e-07
4.07941606505e-08
1.98234284398e-06
8.53781261523e-08
3.0709681288e-06
1.39673271115e-07
3.97390838122e-06
1.98666872542e-07
4.69954935253e-06
2.57895919041e-07
5.26030416412e-06
3.13325807014e-07
5.66931959978e-06
3.61723842117e-07
5.94112175277e-06
4.00557293099e-07
6.09032767156e-06
4.28150512301e-07
6.13202753313e-06
4.43585173806e-07
6.08142810996e-06
4.46730279952e-07
5.95407336442e-06
4.38110927478e-07
5.76574338378e-06
4.18849587562e-07
5.53216401313e-06
3.90465395769e-07
5.26842240832e-06
3.54724647145e-07
4.98780701819e-06
3.13373170814e-07
4.70100549421e-06
2.67937608807e-07
4.41544964465e-06
2.19603385794e-07
4.1358785426e-06
1.69090201353e-07
3.86503982022e-06
1.16966133106e-07
3.60453310019e-06
6.323219871e-08
3.35781987319e-06
3.29033022708e-06
1.07130018349e-08
6.9260743336e-07
4.06796024998e-08
1.95649115135e-06
8.51998452486e-08
3.032751487e-06
1.39506309341e-07
3.9277600881e-06
1.98634182318e-07
4.64992521614e-06
2.58129601975e-07
5.21131629338e-06
3.13931197221e-07
5.62459429619e-06
3.6273793098e-07
5.9036446761e-06
4.01920852079e-07
6.06238533374e-06
4.29692816488e-07
6.11515375107e-06
4.45036362848e-07
6.07639865115e-06
4.47756342635e-07
5.96092187317e-06
4.38377651137e-07
5.7838114917e-06
4.18093290694e-07
5.5602086e-06
3.88565297108e-07
5.3047586661e-06
3.51735721084e-07
5.03054678823e-06
3.09535172108e-07
4.74828420367e-06
2.63622000999e-07
4.46570518265e-06
2.15276661471e-07
4.1879455262e-06
1.65222029426e-07
3.91823059256e-06
1.14031592803e-07
3.65845301931e-06
6.16235403887e-08
3.41246266704e-06
3.3537557319e-06
1.07045670362e-08
6.83344660685e-07
4.06573851262e-08
1.9308357894e-06
8.52248625398e-08
2.9947859456e-06
1.39694432936e-07
3.88185123653e-06
1.99150092923e-07
4.60047885908e-06
2.59148104831e-07
5.16242684628e-06
3.15601319055e-07
5.57990909163e-06
3.65138144237e-07
5.86620976536e-06
4.05025707906e-07
6.03458047325e-06
4.33348627689e-07
6.09862486489e-06
4.48962552212e-07
6.07203119236e-06
4.51569633834e-07
5.96883019477e-06
4.41649691955e-07
5.80336192841e-06
4.20424384437e-07
5.59010593569e-06
3.89672062454e-07
5.3431861937e-06
3.51510722639e-07
5.07542169183e-06
3.08086537006e-07
4.79752423322e-06
2.61243427019e-07
4.51754932408e-06
2.12417082625e-07
4.24108977451e-06
1.62379775272e-07
3.97192036379e-06
1.11736353441e-07
3.71230259915e-06
6.0322730559e-08
3.4665104125e-06
3.41625442801e-06
1.07188373719e-08
6.74134182227e-07
4.07231002363e-08
1.90531544643e-06
8.54441695023e-08
2.95697230157e-06
1.40223579036e-07
3.8360452741e-06
2.00196305323e-07
4.55103534183e-06
2.60931534476e-07
5.11342039853e-06
3.18319786554e-07
5.53500608117e-06
3.68919909936e-07
5.82851695345e-06
4.09891099901e-07
6.00657644412e-06
4.39176551988e-07
6.08208210168e-06
4.55479364038e-07
6.06797140788e-06
4.58359203982e-07
5.97748835475e-06
4.4819939789e-07
5.82417957415e-06
4.26195756737e-07
5.62178815918e-06
3.94199397454e-07
5.38382470881e-06
3.54488219838e-07
5.12275111493e-06
3.09445987319e-07
4.84921860072e-06
2.61159875762e-07
4.57158729602e-06
2.1129693215e-07
4.29595069719e-06
1.60745956237e-07
4.02671322376e-06
1.10186050718e-07
3.76661039454e-06
5.93772597169e-08
3.52040635797e-06
3.47822877409e-06
1.0754455104e-08
6.6495599883e-07
4.087167622e-08
1.87987192783e-06
8.5847209001e-08
2.91921583062e-06
1.4107674239e-07
3.79021071762e-06
2.01749512348e-07
4.50142425847e-06
2.63452106357e-07
5.06408389625e-06
3.22058570718e-07
5.48962520969e-06
3.74062577145e-07
5.79025626931e-06
4.16515715364e-07
5.97801484142e-06
4.47211499407e-07
6.0651285505e-06
4.64679124969e-07
6.06380666672e-06
4.68297611471e-07
5.98650693925e-06
4.58298464144e-07
5.84595329012e-06
4.35785315914e-07
5.65508719971e-06
4.02618638768e-07
5.42670961921e-06
3.61196581916e-07
5.17280956042e-06
3.14143692347e-07
4.90387310165e-06
2.63843813282e-07
4.6284980574e-06
2.12286247449e-07
4.35328633887e-06
1.60571619661e-07
4.08334715109e-06
1.09524687264e-07
3.82202509783e-06
5.88502032197e-08
3.57468493749e-06
3.54015234777e-06
1.08098989448e-08
6.55791394978e-07
4.10974085791e-08
1.85445055896e-06