/*--------------------------------*- C++ -*----------------------------------*\
| =========                 |                                                 |
| \\      /  F ield         | OpenFOAM: The Open Source CFD Toolbox           |
|  \\    /   O peration     | Version:  2112                                  |
|   \\  /    A nd           | Website:  www.openfoam.com                      |
|    \\/     M anipulation  |                                                 |
\*---------------------------------------------------------------------------*/
FoamFile
{
    version     2.0;
    format      ascii;
    arch        "LSB;label=64;scalar=64";
    class       volScalarField;
    location    "0.0051";
    object      regressionAlpha;
}
// * * * * * * * * * * * * * * * * * * * * * * * * * * * * * * * * * * * * * //

dimensions      [0 0 0 0 0 0 0];

internalField   uniform 1e-15;

boundaryField
{
    front
    {
        type            wedge;
        value           uniform 1e-15;
    }
    back
    {
        type            wedge;
        value           uniform 1e-15;
    }
    nozzleWall
    {
        type            zeroGradient;
        value           uniform 1e-15;
    }
    inlet
    {
        type            zeroGradient;
        value           uniform 1e-15;
    }
    outlet
    {
        type            zeroGradient;
        value           uniform 1e-15;
    }
}


// ************************************************************************* //
