/*--------------------------------*- C++ -*----------------------------------*\
| =========                 |                                                 |
| \\      /  F ield         | OpenFOAM: The Open Source CFD Toolbox           |
|  \\    /   O peration     | Version:  2112                                  |
|   \\  /    A nd           | Website:  www.openfoam.com                      |
|    \\/     M anipulation  |                                                 |
\*---------------------------------------------------------------------------*/
FoamFile
{
    version     2.0;
    format      ascii;
    arch        "LSB;label=64;scalar=64";
    class       volScalarField;
    location    "0.0051";
    object      rho;
}
// * * * * * * * * * * * * * * * * * * * * * * * * * * * * * * * * * * * * * //

dimensions      [1 -3 0 0 0 0 0];

internalField   nonuniform List<scalar> 
5589
(
0.401722612
0.401791415425
0.401963279443
0.402189731586
0.402456349258
0.402741391536
0.403031152508
0.403312552891
0.40357707775
0.403818568757
0.4040336653
0.40422080278
0.404380008436
0.404512290238
0.404619418506
0.404703554963
0.404767201351
0.404812985768
0.40484371392
0.404862255521
0.404871562995
0.404874613653
0.404873896479
0.402799096368
0.402854750555
0.403007083524
0.403202351734
0.403425545046
0.403653537236
0.40387329326
0.404074053891
0.404250251668
0.404398916853
0.404520131448
0.404615547554
0.404688164575
0.404741457387
0.404779270492
0.404805179039
0.404822668837
0.404834350828
0.404842729037
0.404848754603
0.40485388303
0.404857172383
0.40486023531
0.402710220909
0.402752470359
0.402878982481
0.403043558582
0.403236433346
0.403437711119
0.40363793943
0.403827529405
0.404001937779
0.404158030183
0.404295146099
0.40441350461
0.404514331883
0.404599028175
0.404669285271
0.404726467727
0.404772181229
0.404807390694
0.404833816842
0.404852092134
0.404864494222
0.404871197858
0.404874870972
0.402615415974
0.402656536122
0.40278529305
0.40295465727
0.403156229932
0.403368880525
0.403582825837
0.403786984217
0.403975694087
0.404144471207
0.404291719784
0.404416952495
0.404521163768
0.404605855833
0.404673346252
0.404725830062
0.404766146733
0.404796243162
0.404818975461
0.404835231013
0.404847681505
0.404855819835
0.404862253587
0.402535131627
0.402573604282
0.402699482606
0.402865868449
0.40306554588
0.403276859678
0.40349049319
0.403695101692
0.403885235857
0.404056422227
0.404207301503
0.404337504261
0.404448189325
0.40454080657
0.404617587976
0.40468019479
0.404730987316
0.404771039398
0.404802696784
0.404826199151
0.404844138574
0.404855885425
0.404864188988
0.402431711803
0.402468259615
0.402592259317
0.402757326667
0.402957496047
0.403170862946
0.403388586028
0.403598938225
0.403796331249
0.40397576926
0.404135468103
0.404274478076
0.404393539761
0.404493601651
0.404576697877
0.404644326273
0.404699084039
0.404742208448
0.404776558097
0.404802572589
0.404823249759
0.404837970914
0.404849525212
0.402311240831
0.402346489524
0.402469560234
0.402634404293
0.402835989084
0.403052062719
0.403274067021
0.403489831764
0.403693621559
0.403880038413
0.404047104975
0.404193630163
0.404320301892
0.404427983955
0.404518739051
0.404593964527
0.404656224613
0.404706499905
0.404747523908
0.404779419395
0.404805087544
0.404823702165
0.404838020274
0.402173618681
0.402207956284
0.402330690094
0.402496032596
0.402699731849
0.402919254954
0.403146317191
0.403368378049
0.403579590445
0.403774173567
0.403949914176
0.404105274471
0.404240718332
0.404356815614
0.404455474457
0.404537892997
0.404606640066
0.404662647179
0.404708817298
0.404745346499
0.404775331913
0.404797993643
0.404816021878
0.402018300431
0.402052049547
0.402175009414
0.40234155665
0.402548082456
0.402771791539
0.403004605347
0.403233605224
0.403452794865
0.403655995619
0.403840752326
0.404005212087
0.404149675447
0.40427452554
0.404381620494
0.404472053974
0.40454840297
0.404611498993
0.404664233958
0.404706691892
0.404741933449
0.404769076624
0.404790657542
0.40184483827
0.401878259206
0.402001940449
0.402170317693
0.402380312701
0.402608885112
0.402848115255
0.403084721264
0.403312550996
0.403525039659
0.40371948915
0.403893727621
0.404047863958
0.404182056519
0.404298054771
0.40439680813
0.404480871323
0.404551019524
0.404610197907
0.404658519028
0.404699115256
0.404731107063
0.404756829275
0.401652636416
0.40168594063
0.401810776569
0.401981539017
0.4021955914
0.402429662163
0.402675947414
0.402920809079
0.403157920465
0.403380326597
0.403585072689
0.403769665976
0.40393402213
0.404078093622
0.404203540071
0.404311201805
0.40440361676
0.404481510095
0.40454782846
0.404602666201
0.404649141998
0.404686332866
0.404716288555
0.401440983253
0.401474344915
0.40160071543
0.401774357112
0.401993005315
0.402233168868
0.402487123032
0.40274088063
0.402987924008
0.403220906309
0.403436603758
0.403632197769
0.403807396917
0.403961940287
0.404097378259
0.404214436511
0.404315619498
0.404401618628
0.404475391517
0.404537062309
0.404589761456
0.404632551864
0.40466712854
0.401209062116
0.401242625175
0.401370861137
0.401547819349
0.401771553717
0.402018364547
0.402280576063
0.402543858774
0.402801487148
0.403045717813
0.403273041688
0.403480306256
0.403666999725
0.403832647092
0.40397868411
0.404105732484
0.404216258736
0.404310929861
0.404392696908
0.404461710408
0.404521081856
0.40456985064
0.404609271711
0.400955954797
0.400989837789
0.401120224251
0.401300882799
0.401530146423
0.401784118884
0.402055149718
0.402328574564
0.402597444092
0.402853612812
0.40309326811
0.403312912355
0.403511795716
0.403689221355
0.403846496071
0.403984137467
0.40410456378
0.404208427019
0.404298668723
0.404375485529
0.404441968162
0.404497138229
0.404541725618
0.400680645307
0.400714944514
0.40084772269
0.401032413677
0.401267601884
0.401529208638
0.401809591693
0.402093760846
0.40237452856
0.402643340898
0.402896061607
0.403128833884
0.403340649654
0.403530580715
0.403699791038
0.403848694722
0.403979653259
0.404093310177
0.404192588603
0.404277738726
0.404351815343
0.404413819665
0.404463862993
0.400382022973
0.40041681439
0.400552182506
0.40074118674
0.400982645287
0.401252314381
0.401542549569
0.401838046321
0.402131366762
0.402413542184
0.402680091145
0.402926780685
0.403152320638
0.403355537466
0.403537434405
0.403698318088
0.403840482674
0.403964568297
0.404073473779
0.404167514514
0.404249700518
0.404319011348
0.404374842344
0.400058885091
0.400094225505
0.40023233867
0.40042588485
0.400673906893
0.400952017487
0.401252566321
0.401559949471
0.401866469725
0.402162738064
0.402443905455
0.402705343182
0.402945451835
0.403162794697
0.403358193536
0.403531840645
0.403685950987
0.403821164125
0.403940346942
0.40404388883
0.40413474297
0.404211863959
0.404273824852
0.399709939469
0.399745866871
0.399886836104
0.400085098882
0.400339920742
0.400626797443
0.400938076044
0.401257872571
0.401578225472
0.401889321606
0.402185921788
0.402462979608
0.402718555657
0.402950927619
0.403160710988
0.403347972656
0.403514834191
0.403661935265
0.403792103196
0.403905809693
0.404005941235
0.404091420288
0.404159893636
0.399333807067
0.399370340555
0.399514231076
0.39971732812
0.399979123928
0.400275029725
0.400597400177
0.400930095976
0.401264891226
0.401591547716
0.401904414259
0.402198002997
0.40247000034
0.402718371135
0.402943495359
0.403145298983
0.403325793094
0.403485615427
0.403627544789
0.403752141909
0.403862215783
0.403956647321
0.40403204094
0.398929024915
0.398966164231
0.399112993129
0.399320981304
0.399589856575
0.399894984389
0.400228744333
0.400574772861
0.400924585793
0.401267523022
0.401597501362
0.401908566714
0.402197993791
0.402463402258
0.402704902118
0.402922257624
0.403117348617
0.403290805755
0.40344534909
0.403581633846
0.403702381005
0.403806418437
0.403889189554
0.398494049516
0.398531774294
0.398681507706
0.39889437848
0.39917036273
0.399484825619
0.39983019609
0.400189924757
0.400555282387
0.400915195829
0.401263133097
0.401592649094
0.401900566441
0.402184122037
0.402443115523
0.402677122566
0.402887866311
0.403075961318
0.403244056485
0.403392904997
0.40352512886
0.403639488117
0.40373013852
0.398027260855
0.398065529682
0.398218079574
0.398435753847
0.398718792364
0.399042612466
0.399399723951
0.39977343811
0.400154802259
0.400532346366
0.40089907779
0.401248037109
0.401575552395
0.401878434941
0.402156127096
0.402407981972
0.402635534796
0.402839370286
0.40302205092
0.403184429448
0.403329016137
0.403454488088
0.403553574203
0.39752696719
0.397565716531
0.397720937268
0.397943259736
0.398233204685
0.398566301062
0.398935177829
0.399323062316
0.399720809497
0.400116577749
0.40050290891
0.40087230927
0.401220569007
0.401544026159
0.401841711656
0.402112713966
0.402358341949
0.402579130936
0.4027775378
0.402954513888
0.403112443718
0.403249902748
0.403358047691
0.396991410723
0.397030553821
0.397188238624
0.397414971919
0.397711573007
0.398053748569
0.398434291451
0.39883640968
0.399250807538
0.399665308183
0.4000719924
0.400462818029
0.400832994996
0.401178336405
0.40149740019
0.401788958782
0.402054047413
0.402293125181
0.402508518731
0.402701274301
0.402873632395
0.403024049742
0.403141942094
0.396418774256
0.396458200066
0.396618077572
0.396848896387
0.397151791343
0.397502719171
0.397894687046
0.398310957784
0.398742138039
0.399175765079
0.39960347513
0.400016672248
0.400409947278
0.400778534301
0.401120449269
0.401434086876
0.401720150729
0.401978987746
0.402212762737
0.402422609153
0.402610602668
0.402775060721
0.402903486736
0.395807188931
0.395846761163
0.396008492257
0.396242977732
0.396551682958
0.396910892397
0.39731388274
0.397744054871
0.398191982789
0.39864498191
0.399094275306
0.399530720342
0.399948257005
0.400341486301
0.400707806672
0.401045162205
0.401353854155
0.401634069686
0.401887770787
0.402116164504
0.402321135531
0.40250083825
0.402640672601
0.395154743121
0.395194299481
0.395357474601
0.395595109256
0.395909011046
0.396275874064
0.396689303129
0.397132928868
0.397597369545
0.398069798886
0.398541076009
0.39900153527
0.399444445562
0.399863724561
0.400256073014
0.400618900179
0.400952019414
0.401255396204
0.401530736691
0.401779300051
0.402002748309
0.402199044405
0.402351281249
0.394459492462
0.394498844184
0.394662981338
0.394903144898
0.395221491636
0.395595210044
0.396018293363
0.396474700684
0.396955182744
0.397446868669
0.397940323306
0.398425402784
0.398894701767
0.399341413399
0.399761459377
0.400151619348
0.400511116641
0.400839615321
0.40113849679
0.401409039809
0.401652644121
0.401867047365
0.402032813601
0.393719471071
0.393758402832
0.393922946548
0.394164912963
0.394486808892
0.39486640309
0.395298137151
0.395766402394
0.396262180041
0.396772668555
0.397288230735
0.397798314917
0.398294862047
0.398770315641
0.399219741412
0.399639186601
0.400027164862
0.400382937582
0.400707472023
0.401002018603
0.401267663992
0.401501879505
0.401682457699
0.392932703877
0.392970974177
0.39313529561
0.393378231695
0.393702632734
0.394086932778
0.39452607899
0.39500500093
0.395515015723
0.396043520681
0.39658079232
0.39711597135
0.397640396318
0.39814576101
0.398626211001
0.39907695556
0.399495662175
0.399881063384
0.400233596506
0.400554414522
0.400844224386
0.401100180466
0.401297036379
0.392097219984
0.392134562098
0.392297960545
0.392540926548
0.392866638712
0.393254278528
0.393699350609
0.394187427645
0.39471027198
0.395255621976
0.395813806625
0.396373791856
0.396926403085
0.397462619869
0.397975627773
0.398459698762
0.398911504642
0.399329095662
0.399712230351
0.400061866138
0.40037824085
0.400658127651
0.400872944294
0.391211066939
0.391247190497
0.391408896532
0.391650849002
0.391976529997
0.392365945591
0.392815201679
0.393310613926
0.393844498552
0.394405085334
0.394982914634
0.395566943817
0.396147618714
0.396715287239
0.397262174356
0.397781535617
0.398268893232
0.39872143505
0.399138052263
0.399519369303
0.399865032694
0.400171350022
0.400406070086
0.390272325684
0.39030691902
0.390466099452
0.39070589667
0.391030061116
0.391419493578
0.3918709344
0.392371532733
0.392914261249
0.393487993239
0.394083653928
0.394690389348
0.39529844704
0.395897684219
0.396479421893
0.397035860262
0.397561229602
0.398051654764
0.398504926511
0.398921147137
0.399299202444
0.399634819496
0.399891699259
0.389279125973
0.389311859282
0.389467624113
0.389704034356
0.390025063058
0.390412567064
0.390863941372
0.39136724551
0.391916199044
0.39250046453
0.393111531595
0.393738956425
0.394373016597
0.395003286412
0.395620315821
0.396215277288
0.396781004189
0.397312353267
0.397805737944
0.398260484321
0.398674480853
0.399042711618
0.399324390216
0.388229661927
0.38826019136
0.388411602898
0.388643315646
0.388959469159
0.389342927483
0.389791745791
0.390294953332
0.390847088762
0.391438734013
0.392062117175
0.392707438512
0.393365273688
0.394025191208
0.394677196405
0.39531155894
0.395919685392
0.396494985857
0.3970321884
0.397529514209
0.397983524797
0.398388224517
0.398697815439
0.387122207328
0.387150180145
0.387296264401
0.387521904579
0.38783134116
0.38820848544
0.388652042735
0.389152050672
0.389703915453
0.390299243223
0.390931155308
0.391590725387
0.392269119211
0.392956238495
0.393641873674
0.394315645079
0.394967626884
0.395589682022
0.39617454893
0.396718942972
0.397217647649
0.397663335611
0.39800454759
0.385955130151
0.38598019116
0.386119951651
0.38633809685
0.386638894676
0.387007332371
0.387442739978
0.387936179594
0.388483945577
0.389078739025
0.389714695456
0.390383965304
0.391078595379
0.391789200024
0.392505782585
0.39321771877
0.393914024682
0.394585069279
0.395221370226
0.395817695691
0.396366458438
0.396858475984
0.397235785018
0.384726905777
0.384748705359
0.38488113947
0.385090339937
0.385380523262
0.385737770315
0.386161996457
0.386645281463
0.387184798704
0.387774374414
0.38840923213
0.389082753239
0.389788122456
0.390517048584
0.391260245148
0.392007399632
0.39274697275
0.393468141722
0.394159162482
0.39481246096
0.395417357989
0.395962053434
0.396380928579
0.383436128066
0.383454332497
0.383578450697
0.383777252002
0.384054820839
0.384398339368
0.38480825753
0.385277644558
0.385804514776
0.386383806415
0.38701184862
0.38768333775
0.388392782333
0.389133316585
0.389896872539
0.390674118146
0.391453705858
0.392224267673
0.39297211475
0.393687159213
0.394354882184
0.394959827456
0.395427108369
0.382081517253
0.382095822057
0.38221066989
0.382397637316
0.382660599214
0.382987838245
0.383380280674
0.383831938607
0.384341604212
0.384905273173
0.385520339074
0.386182813495
0.386888610711
0.387632509461
0.388408091722
0.389207691824
0.39002109218
0.390837418171
0.391641902008
0.392422284144
0.393159698291
0.393833772013
0.394358039556
0.380661922956
0.380672073078
0.380776759215
0.380950506525
0.381196913143
0.381505354945
0.381877173671
0.382307263749
0.382795113775
0.383337687888
0.383933350321
0.384579343418
0.385272946621
0.386010637641
0.386787900381
0.387599286477
0.388436677833
0.389291047403
0.390148093958
0.390994629849
0.391807736674
0.392561081338
0.393153715166
0.379176321811
0.379182132482
0.379275849792
0.379435055816
0.379663025028
0.379950214859
0.380298324547
0.380703061018
0.381164517824
0.381680514542
0.382250253562
0.382872052455
0.383544397442
0.384265330253
0.385032222637
0.385842076664
0.386689593821
0.387568965211
0.388468463968
0.389376412385
0.390267733161
0.391110140108
0.391784663032
0.377623793434
0.377625233394
0.377707352779
0.377850852867
0.378058673356
0.378322338817
0.378643858425
0.379019677444
0.379450403653
0.379934588644
0.380472123556
0.38106220415
0.381704282877
0.382397668062
0.383141319749
0.3839344724
0.384774788476
0.385660519669
0.386584599381
0.387540346381
0.388505018665
0.389444016432
0.39022077634
0.376003554111
0.376000581982
0.376070377725
0.376196837154
0.376382612789
0.376620284346
0.37691213717
0.377255278864
0.377650746878
0.378097699742
0.378596568347
0.379147218849
0.379749797731
0.380404492663
0.381111339746
0.381871143588
0.382683869626
0.383551487455
0.38447238538
0.385447903165
0.386463641239
0.387491049578
0.388376500834
0.37431443362
0.374308573396
0.374367211653
0.374477235964
0.3746411573
0.374852569076
0.375114036929
0.375423244358
0.375781600586
0.376188753419
0.376645551923
0.377152347922
0.377709742735
0.378318434282
0.378978987414
0.37969291078
0.380461201408
0.38128784903
0.382174971043
0.383132038394
0.384157907932
0.385248046873
0.386277168555
0.372555668802
0.372550508341
0.372600014883
0.372694472093
0.372836650806
0.37302122933
0.373251122087
0.373524545395
0.373843261963
0.374207315498
0.374617890414
0.375075687963
0.375581604402
0.376136606906
0.376741409954
0.377397580445
0.378105888589
0.37887017948
0.379691667241
0.380582363999
0.381537243351
0.382593063028
0.383524290651
0.370725702166
0.370732165678
0.370783503417
0.370873040235
0.371003823883
0.371171738841
0.37138004625
0.371627533666
0.371916298074
0.372246760332
0.372620393701
0.373038189053
0.373501262871
0.37401076138
0.374567438894
0.375172783828
0.375827021304
0.376533529445
0.377290296405
0.378112270628
0.378967179363
0.379966093468
0.380556743962
0.368810863672
0.368832413411
0.368889447988
0.368977751868
0.369100498242
0.369254799861
0.369444270335
0.369668284814
0.369929272452
0.37022802153
0.370566275211
0.370945285454
0.371366356883
0.371830784859
0.37233932786
0.372893434359
0.373492644197
0.374140519582
0.374829734215
0.375585608479
0.37632505911
0.377293706763
0.377518131851
0.366802899667
0.366840191812
0.366903883807
0.366991787432
0.367107018907
0.36724788696
0.367418339448
0.367618329636
0.36785060533
0.36811630206
0.368417411166
0.368755419757
0.369131796864
0.369547980126
0.370004717456
0.370503561188
0.371043203333
0.37162874708
0.372244774194
0.372938215027
0.37355233731
0.374516035323
0.37441260936
0.36469583915
0.364748313663
0.364818059046
0.364904780431
0.365011413174
0.365137427473
0.365287080632
0.365460890297
0.365661908944
0.365891603106
0.366152197798
0.366445402057
0.366772839839
0.367136111285
0.367535943591
0.367974225665
0.368448475194
0.368967193302
0.36950300295
0.37013659965
0.370616989939
0.371586845297
0.371190087217
0.362485561859
0.362552406811
0.362627109226
0.362711314248
0.362807711545
0.362916912135
0.36304346167
0.36318843089
0.363355166236
0.363545454223
0.363761745002
0.364005965379
0.364279890313
0.364585319624
0.364922926117
0.365295239796
0.365698041362
0.366145443149
0.366593466318
0.367167959479
0.367507863801
0.368481900163
0.367815385673
0.360168679007
0.360249016609
0.360327366093
0.360407457211
0.360491709492
0.360581868273
0.360682752046
0.360795976251
0.3609251727
0.36107243971
0.361240446293
0.361431336916
0.361647030998
0.361889575978
0.362159515301
0.362460391236
0.362785449737
0.363156840588
0.363509097745
0.36402275459
0.36421671104
0.365186135523
0.364265086752
0.357742210994
0.357835102595
0.357915636848
0.357989827434
0.35805982392
0.358128510854
0.358200969316
0.358279353422
0.358367572981
0.358468031308
0.358583609815
0.358716672297
0.358869268845
0.359043752325
0.359240413693
0.359464242941
0.359704966661
0.359995255501
0.360243508316
0.360692124276
0.360734098737
0.361686990835
0.360517944319
0.355203524139
0.355307952803
0.355389076371
0.355455422089
0.355508883522
0.355553497556
0.355594601874
0.355634885327
0.355678529017
0.355728235
0.355787089124
0.355857677127
0.355942156242
0.356043253194
0.35616083516
0.356301831542
0.356451349754
0.35665498126
0.356790997885
0.357168591408
0.357054457729
0.357974258448
0.356554818183
0.352550319805
0.352665171641
0.352745161616
0.352801576094
0.352836073277
0.352853861014
0.352860530732
0.352859303754
0.352854625981
0.352849492122
0.352847182178
0.352850507215
0.352861696805
0.352883931188
0.352916438426
0.352968618613
0.353019816776
0.353130720119
0.353146285709
0.353445057794
0.353169532024
0.35404144393
0.352365819949
0.349780640893
0.349904689731
0.349981696029
0.350025958777
0.350038923834
0.350026991906
0.349996007287
0.349949722741
0.349892842296
0.349828647283
0.349760598698
0.349691737153
0.349624317757
0.34956206487
0.349503314793
0.349460488528
0.349406050538
0.349417656375
0.349304720941
0.349515997105
0.349075362535
0.349882201498
0.347940725774
0.346892888144
0.347024785389
0.347096830404
0.347126592157
0.347115327107
0.347070652374
0.346998665206
0.346903649582
0.346790560612
0.346662960127
0.346524473756
0.346378376978
0.34622689158
0.346074386107
0.345918023708
0.345773791747
0.345606228113
0.345511454907
0.345261963796
0.3453759043
0.344765476629
0.345492247508
0.343275987164
0.343885841417
0.344024111332
0.344089091217
0.344101879424
0.344063564698
0.343983004553
0.343866549471
0.343719015034
0.343545599628
0.343350139502
0.343136405183
0.342907913727
0.342666783258
0.342418133999
0.342157655135
0.341905420626
0.34161710289
0.34140840607
0.34101429314
0.341020427918
0.340235119399
0.340866529219
0.338369718305
0.340758682803
0.340901722722
0.340957411317
0.340950637147
0.340882341172
0.340762645059
0.340598152434
0.340394211195
0.340156254392
0.339888386727
0.339594500553
0.339278362971
0.338941907658
0.338591119154
0.338219901853
0.337852896347
0.337436095603
0.337105536784
0.336558648293
0.336445943909
0.335479668392
0.336000371111
0.333219812939
0.337511019726
0.337657104477
0.337701160122
0.337672127562
0.3375708181
0.337408640758
0.337192451535
0.336928131606
0.336621339117
0.336276441638
0.335897427124
0.335488323249
0.335050789583
0.334591790697
0.33410313384
0.333614457634
0.333061391508
0.332600743111
0.331892868344
0.331650089535
0.330496558232
0.330890719548
0.327823075768
0.33414290693
0.334290196976
0.334320172188
0.334266089426
0.334128646957
0.333920563731
0.333648946382
0.333320210713
0.332940229479
0.33251362813
0.332044461288
0.331537030111
0.330992623141
0.330419302131
0.329806470142
0.329189144384
0.328492030415
0.327892883759
0.327015713366
0.326631356739
0.325285230707
0.325535972208
0.322177877921
0.330654866343
0.330801419082
0.330814772971
0.330732766211
0.330555999433
0.330298523589
0.32996769337
0.329570461018
0.329112902559
0.328599897296
0.328035535405
0.327424407326
0.326767327922
0.326073573253
0.325329845765
0.324576873072
0.323728000552
0.322981885357
0.321927731867
0.321387283177
0.319846055851
0.319938446419
0.316284731752
0.327047904359
0.327191688126
0.327185801305
0.327072930809
0.326853594161
0.326543196258
0.326149336567
0.325679506351
0.325139972941
0.324535866491
0.323871280376
0.323151113538
0.322375600378
0.321555346602
0.320674072068
0.319778492795
0.318770290502
0.317868636239
0.316630736821
0.315918201101
0.314179960017
0.314101133862
0.31014666514
0.323323526186
0.32346243653
0.323434628035
0.323287906047
0.323022719069
0.322655848148
0.322195133839
0.32164861027
0.321022723764
0.320322852925
0.319553062328
0.318718582934
0.317818959362
0.316866236361
0.315840895178
0.314795843596
0.313620928227
0.312554797942
0.311127763934
0.310227375194
0.308289878442
0.30802749512
0.303768533816
0.319483746928
0.319615624468
0.319563170266
0.319379580493
0.319065248545
0.318638354791
0.318106977214
0.317479698349
0.316763131591
0.315962900171
0.315083011185
0.314129057165
0.313099786193
0.312008775363
0.310833056621
0.309631766658
0.308283672491
0.307042792662
0.305422217407
0.304320508544
0.302180827082
0.301722600412
0.297157092516
0.315531099862
0.315653748936
0.31557390101
0.315350418907
0.314983654815
0.314493213008
0.313887405917
0.313175372571
0.312363884435
0.311458800441
0.310464045771
0.3093856127
0.308221347304
0.306986355835
0.305654401389
0.304290221917
0.302763013442
0.301337205102
0.299519274998
0.298204231862
0.295859413987
0.295193394603
0.2903211901
0.311468642409
0.31157984907
0.311469854229
0.311203467775
0.310781014227
0.310223548426
0.309539615482
0.308738922091
0.30782839262
0.306814068792
0.305699828289
0.304492108376
0.303187925134
0.301803653201
0.300309794819
0.298775949046
0.2970646519
0.295444780651
0.293425778398
0.291886287575
0.289333767021
0.288448666116
0.283271792532
0.307299962403
0.307397508928
0.307254624261
0.306942349643
0.306460994194
0.305833091528
0.305067420025
0.30417427197
0.303160797601
0.302033162736
0.30079505657
0.299453465756
0.298004535414
0.29646594413
0.294805318924
0.293095459144
0.291195623017
0.289373454996
0.287149963125
0.285375884406
0.282613647674
0.281499058844
0.276021947783
0.303029180278
0.303110852684
0.302932367437
0.302571290269
0.302027914452
0.301326293008
0.300475435318
0.29948622169
0.298365984564
0.297121172942
0.295755221743
0.294275523896
0.292677443481
0.29097974295
0.289148027849
0.287256443922
0.285164225599
0.283132446052
0.280701483635
0.278683821936
0.275710526186
0.27435710989
0.268586759537
0.298661040049
0.298724598149
0.298507770764
0.298095005693
0.297486601982
0.296708117029
0.295768795157
0.294680108684
0.29344953929
0.292083868649
0.290586383836
0.288964737998
0.287213586624
0.285352393884
0.283345802986
0.281267367409
0.278979898898
0.276732080563
0.274091672767
0.271822562244
0.268637620953
0.267037268916
0.260983346508
0.2942006232
0.294243829951
0.293986091971
0.293518962403
0.292842772025
0.291984554192
0.290953796243
0.289762563287
0.288418474987
0.286928637881
0.285296246867
0.283529121031
0.281621468608
0.27959292102
0.27740824144
0.275138328882
0.272653030843
0.27018336107
0.267332207707
0.2648052911
0.261410316256
0.259555967431
0.253230780779
0.289653255915
0.289674059623
0.289373093016
0.288849159144
0.288102648687
0.287162053453
0.28603712385
0.284740523294
0.283280020252
0.281663036519
0.279892736591
0.27797703293
0.275909944252
0.273710761823
0.271345353878
0.268880240668
0.266195119309
0.263499270623
0.260436608406
0.257646351592
0.254044369086
0.251931278967
0.24534984343
0.285024472573
0.285021128003
0.284674916439
0.28409201944
0.283272940642
0.282247621685
0.28102610776
0.279621669725
0.278042249205
0.276295575686
0.274384847621
0.272317993983
0.27008910062
0.267716673732
0.265168549879
0.262505492249
0.259619137872
0.256694251089
0.253419394233
0.250362738266
0.246556389716
0.244182142957
0.237362667233
0.280320198174
0.280291290868
0.279898139483
0.279254421467
0.278360829417
0.277248753624
0.275928576792
0.274414190938
0.272713746701
0.270835279564
0.26878209629
0.266562076257
0.264169615168
0.261622063326
0.258889925367
0.256027236323
0.252938925496
0.249783780846
0.246296557542
0.242972671679
0.238964823545
0.236328719262
0.229292668904
0.275546723905
0.275491152761
0.275049691993
0.274343614934
0.273373894858
0.272173375304
0.270752828974
0.269126787079
0.267303654784
0.26529177879
0.263094653557
0.260720057956
0.258162917166
0.255439152771
0.252522446095
0.249459555634
0.246169319383
0.242784364459
0.239085311204
0.235495929903
0.23128952507
0.228393121851
0.221164698184
0.270710681213
0.270627651993
0.270136847705
0.269367214134
0.26832010662
0.267029831234
0.265507612061
0.26376864224
0.261821635515
0.259675263543
0.257333291155
0.254803367285
0.252081134345
0.249180922428
0.246079902369
0.242817418684
0.239326166781
0.235713569979
0.231804157196
0.227953717188
0.223552112604
0.220399679042
0.213005583752
0.265818992909
0.265708016174
0.265167178401
0.264333148304
0.263207770538
0.261826826929
0.260202062214
0.258349359605
0.25627780333
0.253996413944
0.251509311107
0.248824011035
0.245937025432
0.242861042149
0.239576851765
0.236116616624
0.232426278894
0.228589954561
0.224472820462
0.220368485874
0.215775845594
0.212374928438
0.204846325602
0.260878818654
0.260739709594
0.260148499914
0.259249604876
0.2580454688
0.256573366409
0.254845639411
0.252878895328
0.250682658349
0.248266333535
0.245634481329
0.242794511988
0.239743924189
0.236493818596
0.233028580342
0.229373725735
0.225487406621
0.221433024411
0.21711220434
0.212763764829
0.207985284512
0.204347659342
0.196717034661
0.255897496481
0.255730375478
0.255088813143
0.254124968314
0.252841996649
0.251278686893
0.249448060636
0.247367491043
0.245047019259
0.242496483759
0.239720974035
0.236727852406
0.233515693731
0.230094160144
0.226451087916
0.222606111966
0.218528273067
0.214263293273
0.209744484867
0.205164266237
0.200206469717
0.196348221111
0.188645975921
0.250882479592
0.25068777242
0.249996239422
0.248967753858
0.247606294244
0.245952189282
0.244019229544
0.241825603476
0.23938195452
0.23669861859
0.233781307061
0.230637424883
0.227266693781
0.223677565895
0.219861110306
0.215831999188
0.211568702135
0.207102502425
0.202393441787
0.197596366541
0.192467700315
0.188409089026
0.180665288297
0.245841267769
0.24561970461
0.244878949349
0.243786534855
0.242347372884
0.240603363521
0.238569161819
0.23626383107
0.233698712085
0.230884719791
0.227828289145
0.224536992646
0.221011765484
0.217260146816
0.213276194157
0.209070627984
0.20462988776
0.199974075043
0.195085151629
0.190089188775
0.184801338455
0.180567905484
0.172812629836
0.240781330749
0.24053394315
0.239745082908
0.238589862106
0.237074233758
0.235241707452
0.233107905075
0.230692836223
0.22800864637
0.225066932014
0.221874968935
0.2184406604
0.214766236605
0.210858685244
0.206714836493
0.202342526793
0.197734845294
0.192903865825
0.18784911999
0.18267628893
0.177246075667
0.172870128712
0.165134361649
0.235710027881
0.235438143161
0.234602665884
0.233386180289
0.231795784872
0.229876644814
0.227645459026
0.225123269509
0.222323149338
0.219257505038
0.215934595241
0.212362863357
0.208545955889
0.204490743304
0.200196704844
0.195669919013
0.190909086033
0.185921275936
0.180719984044
0.17539823678
0.169850565662
0.165373705127
0.157691827136
0.230634438636
0.23033967091
0.229459436983
0.228183655825
0.226520669449
0.22451735492
0.222191607267
0.219565605034
0.216653492359
0.213468646699
0.210020488536
0.206318270247
0.202367247142
0.198174705489
0.193742820803
0.189077153693
0.184181429638
0.179060717153
0.173739936328
0.168306581079
0.162679543314
0.158157688815
0.150573502714
0.225562024747
0.225246250884
0.224323492514
0.222990824093
0.221257918234
0.219173433833
0.216756591153
0.214030831986
0.211011541298
0.207713269509
0.204146830006
0.200322631385
0.196247839754
0.19193083411
0.18737679734
0.182592244271
0.17758600402
0.172364424908
0.166962849125
0.161470349872
0.155824271111
0.15133868781
0.143921739082