/*--------------------------------*- C++ -*----------------------------------*\
| =========                 |                                                 |
| \\      /  F ield         | OpenFOAM: The Open Source CFD Toolbox           |
|  \\    /   O peration     | Version:  2112                                  |
|   \\  /    A nd           | Website:  www.openfoam.com                      |
|    \\/     M anipulation  |                                                 |
\*---------------------------------------------------------------------------*/
FoamFile
{
    version     2.0;
    format      ascii;
    arch        "LSB;label=64;scalar=64";
    class       volScalarField;
    location    "0.0051";
    object      T.gas;
}
// * * * * * * * * * * * * * * * * * * * * * * * * * * * * * * * * * * * * * //

dimensions      [0 0 0 1 0 0 0];

internalField   nonuniform List<scalar> 
5589
(
1998.97799619
1998.9954655
1999.04645794
1999.11409588
1999.19347229
1999.27559297
1999.35705855
1999.43413895
1999.50520424
1999.56931135
1999.62639261
1999.67698908
1999.72194827
1999.76252996
1999.80006442
1999.83587718
1999.87031716
1999.90351607
1999.93364356
1999.95863717
1999.97589225
1999.98560394
1999.98870121
1998.78400492
1998.80087641
1998.85026358
1998.91848215
1999.00110539
1999.09015617
1999.18259764
1999.27453786
1999.36350349
1999.44741094
1999.52506177
1999.59592345
1999.660005
1999.71791469
1999.77051031
1999.81865048
1999.86240007
1999.90112723
1999.9338346
1999.95948616
1999.97787088
1999.98931031
1999.99356591
1998.51420886
1998.53670294
1998.60030394
1998.68781459
1998.79303034
1998.90655244
1999.02333028
1999.13789885
1999.24690229
1999.34778453
1999.43939744
1999.5215888
1999.59514891
1999.66142187
1999.7217708
1999.77707106
1999.82717081
1999.87107474
1999.90744549
1999.93588286
1999.95664845
1999.9714082
1999.98047586
1998.27407703
1998.300309
1998.37363983
1998.47445119
1998.59534104
1998.72600778
1998.8603551
1998.99220564
1999.11786675
1999.23463067
1999.34143373
1999.43823237
1999.52588645
1999.60548594
1999.67782318
1999.74287435
1999.7997965
1999.84740855
1999.88545527
1999.91487494
1999.93731834
1999.95382877
1999.96441404
1998.02078511
1998.05073808
1998.13374306
1998.24787244
1998.3847245
1998.5330994
1998.68586417
1998.83603124
1998.97940096
1999.1129599
1999.23557406
1999.34719167
1999.44864067
1999.54073735
1999.6238095
1999.69726628
1999.7600832
1999.81161497
1999.8526111
1999.88514954
1999.91112157
1999.93162711
1999.94689151
1997.75863761
1997.79229467
1997.88483183
1998.01199723
1998.1644515
1998.33006014
1998.5007778
1998.66895146
1998.83000492
1998.98075874
1999.12004823
1999.24772181
1999.36430393
1999.46997464
1999.56426913
1999.64594602
1999.71404161
1999.76885031
1999.81256487
1999.84819784
1999.87788481
1999.90219766
1999.92121436
1997.4861331
1997.52339761
1997.62511701
1997.76483643
1997.93240961
1998.1148213
1998.30326275
1998.4895321
1998.66869692
1998.83736932
1998.99419463
1999.13868497
1999.27080138
1999.38995218
1999.49498871
1999.58447495
1999.65811503
1999.71752087
1999.76603278
1999.80694451
1999.84194622
1999.87124544
1999.89528044
1997.20116048
1997.24196758
1997.35258667
1997.50449999
1997.68687659
1997.88587736
1998.09204325
1998.29669939
1998.49455039
1998.68193377
1998.85715347
1999.0191822
1999.16721342
1999.29979459
1999.41520597
1999.51216162
1999.59138622
1999.6558524
1999.70976472
1999.75634016
1999.79686844
1999.83138676
1999.86082045
1996.90185611
1996.94616621
1997.0654614
1997.22930915
1997.42630498
1997.64184917
1997.86592111
1998.08941197
1998.30662553
1998.5135148
1998.70786435
1998.88791315
1999.05196204
1999.19777192
1999.32338204
1999.42814981
1999.51411505
1999.58544395
1999.64664143
1999.70042139
1999.74748802
1999.78786032
1999.82334466
1996.58643262
1996.63423404
1996.76204998
1996.93768083
1997.14924266
1997.38143583
1997.62373751
1997.86660767
1998.10388859
1998.33102073
1998.54509833
1998.74347224
1998.92350161
1999.08231492
1999.21804792
1999.33103516
1999.424647
1999.50389948
1999.57318928
1999.63463633
1999.68854004
1999.73517668
1999.77750524
1996.25321568
1996.30452304
1996.44076855
1996.62812521
1996.85430308
1997.10335634
1997.36429424
1997.62712276
1997.88514849
1998.13316685
1998.36742946
1998.58429977
1998.78024302
1998.95201708
1999.09823561
1999.22046048
1999.32325811
1999.41207041
1999.4908113
1999.56090539
1999.62232035
1999.6757251
1999.72558164
1995.90061379
1995.95546122
1996.10009279
1996.29918411
1996.54009348
1996.80627556
1997.08628734
1997.36964243
1997.64903035
1997.91847366
1998.1732555
1998.40870895
1998.62052507
1998.80538407
1998.96267741
1999.09525009
1999.20856841
1999.30809828
1999.39707933
1999.47634014
1999.54570977
1999.60643737
1999.66479351
1995.52706283
1995.5854956
1995.73849774
1995.94936914
1996.20515534
1996.48875242
1996.78826822
1997.0926777
1997.39396986
1997.68527908
1997.96082995
1998.21494548
1998.44272956
1998.64109195
1998.81042056
1998.95476624
1999.08014233
1999.19169803
1999.29189378
1999.38105313
1999.45898795
1999.52763699
1999.59540953
1995.13097482
1995.1930413
1995.35440803
1995.57711547
1995.84792443
1996.14920964
1996.46862518
1996.79455861
1997.11821724
1997.43175034
1997.72827375
1998.00117632
1998.24519658
1998.45773954
1998.64028075
1998.79786815
1998.93669153
1999.06134153
1999.17351361
1999.27318119
1999.36028116
1999.43755741
1999.51588209
1994.71069952
1994.77644447
1994.94616382
1995.18075293
1995.46670853
1995.78591953
1996.12557767
1996.47343592
1996.81984597
1997.1558993
1997.47359626
1997.76551558
1998.02626455
1998.25394668
1998.45110371
1998.62350039
1998.7771701
1998.91599631
1999.04097723
1999.15187117
1999.24883715
1999.33550804
1999.42555896
1994.26450048
1994.3339596
1994.51200137
1994.75849108
1995.05967768
1995.39699967
1995.7571768
1996.12728559
1996.49676029
1996.85559094
1997.19469792
1997.50600627
1997.78420924
1998.02822607
1998.2415378
1998.43030722
1998.6001368
1998.75414101
1998.89273471
1999.0155963
1999.12319276
1999.22012529
1999.32322784
1993.79054255
1993.86373827
1994.0500441
1994.30841367
1994.62486177
1994.98041341
1995.36130831
1995.75391357
1996.14670148
1996.52854932
1996.88937128
1997.22061152
1997.51722855
1997.77898551
1998.01009903
1998.2168128
1998.40409543
1998.57429595
1998.72737279
1998.86303439
1998.98211408
1999.09025136
1999.20782073
1993.28688728
1993.36382525
1993.55830042
1993.82847826
1994.1601519
1994.53397256
1994.9356961
1995.3509598
1995.76725139
1996.1723577
1996.55529159
1996.90718801
1997.223396
1997.50446495
1997.75509196
1997.98130927
1998.18731749
1998.37475043
1998.54323896
1998.69261208
1998.82411226
1998.94448699
1999.07806482
1992.75149296
1992.83215898
1993.03466507
1993.31651867
1993.66330347
1994.05534084
1994.47790567
1994.9159013
1995.35583371
1995.78445471
1996.19000268
1996.56345901
1996.90062668
1997.20271078
1997.47460916
1997.72189101
1997.94791518
1998.15367759
1998.33859879
1998.50269496
1998.6476441
1998.78137338
1998.93261761
1992.18221718
1992.26657442
1992.47692248
1992.77024882
1993.13194029
1993.5420379
1993.98534773
1994.44605439
1994.90971296
1995.36212617
1995.79089707
1996.18698174
1996.5466374
1996.8715377
1997.16649806
1997.43641935
1997.68379183
1997.90906242
1998.11154109
1998.29147707
1998.45099909
1998.59929191
1998.76999309
1991.57682093
1991.66480726
1991.88275131
1992.1872675
1992.56355939
1992.99144387
1993.45528185
1993.9385764
1994.42599161
1994.90249361
1995.35519287
1995.77511381
1996.15891035
1996.50849907
1996.82834231
1997.12251279
1997.39263797
1997.63870337
1997.85998637
1998.05699582
1998.23231735
1998.39647985
1998.58856971
1990.93297362
1991.02449908
1991.2497299
1991.56506406
1991.95553679
1992.40080479
1992.88482087
1993.39046731
1993.90160582
1994.40250048
1994.8799083
1995.32497889
1995.73465696
1996.11085528
1996.4574351
1996.77752074
1997.07190108
1997.34017698
1997.5816479
1997.7970921
1997.98955201
1998.1709983
1998.38656689
1990.24825907
1990.34320342
1990.57534267
1990.90102518
1991.30513442
1991.7672393
1992.27093623
1992.79857167
1993.33332074
1993.85889731
1994.3618357
1994.833433
1995.27078305
1995.6755425
1996.05075123
1996.39849601
1996.7187569
1997.01080897
1997.27400434
1997.50938565
1997.72044738
1997.92071182
1998.16202335
1989.52018233
1989.61839281
1989.85698759
1990.19244275
1990.6095084
1991.08774677
1991.61046475
1992.15958154
1992.71772615
1993.26822705
1993.79751633
1994.29703239
1994.76385487
1995.19913956
1995.6049139
1995.98215934
1996.33007151
1996.64763527
1996.93426181
1997.19123979
1997.42250761
1997.64326266
1997.91277944
1988.74617753
1988.8474668
1989.09198473
1989.43652322
1989.86571902
1990.35921736
1990.90011728
1991.47004121
1992.05123379
1992.6268124
1993.18321766
1993.71200367
1994.21006578
1994.67783254
1995.11615627
1995.52485731
1995.9023566
1996.24735717
1996.55931098
1996.83972175
1997.09296023
1997.33603643
1997.63644399
1987.9236168
1988.02776116
1988.27758634
1988.63039858
1989.07074268
1989.57844429
1990.13648985
1990.72635448
1991.33007776
1991.93074675
1992.51491475
1993.07421754
1993.60520411
1994.10737688
1994.58027712
1995.02251216
1995.43171612
1995.80628791
1996.14567621
1996.45155554
1996.7287133
1996.99612348
1997.3303588
1987.04982026
1987.15655822
1987.41098809
1987.7711389
1988.22148574
1988.74213853
1989.31607765
1989.92479565
1990.55031924
1991.17589062
1991.7882776
1992.37916739
1992.94462284
1993.48305719
1993.99259044
1994.47056307
1994.91378317
1995.32028937
1995.68945508
1996.02306629
1996.32630531
1996.62027466
1996.9915624
1986.12206727
1986.23109858
1986.48934201
1986.85576681
1987.31480077
1987.84694633
1988.43529271
1989.06152496
1989.70785738
1990.35787554
1990.99866661
1991.62195479
1992.22321293
1992.79964595
1993.34786929
1993.86389822
1994.34364546
1994.78469635
1995.18624547
1995.55011214
1995.88184227
1996.20484329
1996.61673646
1985.13760874
1985.24859393
1985.50977069
1985.88127366
1986.34750491
1986.88946965
1987.49048539
1988.13260961
1988.79844761
1989.47211751
1990.14113853
1990.79728447
1991.43538263
1992.05136329
1992.64028526
1993.1967775
1993.71575785
1994.19422595
1994.6310574
1995.02800191
1995.39092264
1995.7457174
1996.20214583
1984.09368065
1984.2062412
1984.4693831
1984.84463751
1985.31640059
1985.86628965
1986.47797029
1987.13405106
1987.81772883
1988.51384195
1989.21046582
1989.89947229
1990.57504684
1991.2318414
1991.86334589
1992.46274632
1993.02384025
1993.54286869
1994.01820516
1994.45139333
1994.84854398
1995.23823538
1995.74356385
1982.98751848
1983.10123771
1983.36529155
1983.74284267
1984.21829829
1984.77399315
1985.39405654
1986.06181909
1986.76126062
1987.47812219
1988.20117215
1988.92247035
1989.63563177
1990.33409935
1991.00983462
1991.65454271
1992.26076005
1992.82375775
1993.34117445
1993.81416619
1994.2489862
1994.67708048
1995.23617933
1981.81637258
1981.93079734
1982.19462992
1982.57290069
1983.05004124
1983.60920191
1984.2350826
1984.9118928
1985.62457094
1986.3599329
1987.10758723
1987.85991422
1988.61010172
1989.35053596
1990.07176057
1990.76400236
1991.41839962
1992.02901259
1992.5924579
1993.10926263
1993.58566412
1994.05614841
1994.67448032
1980.57752406
1980.69216732
1980.95457261
1981.33187244
1981.80853161
1982.36860418
1982.99745479
1983.68030824
1984.40321456
1985.15421941
1985.92392347
1986.70519755
1987.49101653
1988.27295194
1989.04032948
1989.78197037
1990.48751252
1991.14955453
1991.76335097
1992.32848352
1992.85093779
1993.36837726
1994.0521059
1979.26830106
1979.38264555
1979.64235424
1980.01689092
1980.49075779
1981.04898809
1981.67768916
1982.36321173
1983.09284117
1983.85598275
1984.64437604
1985.45157886
1986.27062883
1987.09261504
1987.9059524
1988.69823515
1989.457578
1990.17489454
1990.84369984
1991.46222682
1992.03586496
1992.60552592
1993.36165486
1977.88609484
1977.99959789
1978.25528939
1978.62518435
1979.09382205
1979.64727587
1980.27245511
1980.95691717
1981.68927147
1982.46037886
1983.26324655
1984.09232409
1984.94103049
1985.80038458
1986.65831474
1987.5015089
1988.31667313
1989.09290106
1989.82159427
1990.49914929
1991.12987221
1991.75787845
1992.59443183
1976.4283753
1976.54047508
1976.79079217
1977.154099
1977.61496791
1978.16055784
1978.77861956
1979.45796533
1980.18857813
1980.96282858
1981.77508737
1982.62088549
1983.49435543
1984.38691261
1985.28653419
1986.17949132
1987.05139808
1987.88957002
1988.68300594
1989.4257309
1990.1203124
1990.81384273
1991.74010861
1974.89270524
1975.0028289
1975.24639519
1975.60112129
1976.05160661
1976.58612532
1977.19328968
1977.86318205
1978.58716751
1979.35913285
1980.17486099
1981.03111252
1981.9230408
1982.84293616
1983.77943957
1984.71906575
1985.64691184
1986.5488439
1987.41138933
1988.22572035
1988.9918577
1989.75938229
1990.78624126
1973.27675257
1973.38432691
1973.61976734
1973.96389859
1974.4013418
1974.92150106
1975.51385256
1976.16973277
1976.88185756
1977.64558618
1978.4581048
1979.31748518
1980.22014106
1981.159668
1982.12600199
1983.10669138
1984.08716889
1985.05257473
1985.98730884
1986.87946743
1987.72567977
1988.5772163
1989.71761439
1971.57829917
1971.68276504
1971.90872987
1972.24025786
1972.6619912
1973.16446538
1973.73800866
1974.37516825
1975.06994421
1975.81907686
1976.6210845
1977.47534705
1978.37967027
1979.32926871
1980.31592595
1981.32904283
1982.35546146
1983.3807685
1984.38820735
1985.36316622
1986.29831329
1987.24557618
1988.51512955
1969.79524497
1969.89607809
1970.11127169
1970.42822404
1970.83160818
1971.31308188
1971.86380389
1972.47746712
1973.14926152
1973.87717717
1974.66093572
1975.50113202
1976.39696141
1977.34539262
1978.34041848
1979.37397875
1980.43545069
1981.51240529
1982.58866554
1983.64829649
1984.6803335
1985.73655101
1987.15447893
1967.92560482
1968.02234445
1968.22555649
1968.52602551
1968.90848451
1969.36569702
1969.88962647
1970.47503147
1971.11817961
1971.81815178
1972.57569993
1973.39246098
1974.26888085
1975.2036042
1976.1929052
1977.23162238
1978.31255483
1979.42685058
1980.56128595
1981.70131897
1982.83448221
1984.0129039
1985.60240677
1965.9674912
1966.05979843
1966.24996021
1966.53215349
1966.89123287
1967.32104779
1967.81434259
1968.36685383
1968.97580807
1969.64120575
1970.36463317
1971.14854385
1971.99438717
1972.90220559
1973.87029749
1974.89627736
1975.97666586
1977.10727728
1978.28023792
1979.48622548
1980.71605304
1982.02630899
1983.81546536
1963.91909812
1964.0067711
1964.18292017
1964.44509709
1964.77839403
1965.17772788
1965.63660801
1966.15165891
1966.72095058
1967.34523379
1968.02673318
1968.76847684
1969.57261586
1970.44018035
1971.37096219
1972.36472172
1973.42116593
1974.54070688
1975.72203714
1976.96456164
1978.26900004
1979.7060411
1981.71722584
1961.77852277
1961.8620138
1962.02388379
1962.2649703
1962.5708014
1962.93734194
1963.35886709
1963.83280016
1964.3579534
1964.9356726
1965.56864671
1966.26025585
1967.01306002
1967.82864079
1968.7076362
1969.65100225
1970.660354
1971.73919504
1972.89156422
1974.12625424
1975.45852258
1976.98910303
1979.23098749
1959.54458244
1959.62265395
1959.76747431
1959.98358783
1960.25732266
1960.58572234
1960.96384941
1961.38985357
1961.86321228
1962.38574396
1962.96047859
1963.59099568
1964.28006269
1965.02948979
1965.84021975
1966.71350269
1967.65134115
1968.6579741
1969.73884103
1970.90797955
1972.18594064
1973.71860023
1976.03688528
1957.21105916
1957.30557174
1957.45544529
1957.66784611
1957.93004181
1958.2403776
1958.59476413
1958.99216315
1959.43273717
1959.91881132
1960.45376779
1961.0413877
1961.68459125
1962.38530109
1963.14452134
1963.96340214
1964.84349874
1965.78845565
1966.80149522
1967.89829635
1969.08436807
1970.56182377
1972.71992529
1954.75595785
1954.86823089
1955.02422409
1955.23357991
1955.48444316
1955.77649097
1956.10645961
1956.47410824
1956.88023322
1957.3276149
1957.81992656
1958.3610939
1958.95412997
1959.60101255
1960.30273382
1961.06029075
1961.8745518
1962.74862165
1963.68146229
1964.69316353
1965.75419428
1967.15972372
1969.03912904
1952.17499184
1952.30723296
1952.47200384
1952.68072515
1952.922236
1953.19752371
1953.50414547
1953.8426518
1954.21445041
1954.62275044
1955.07148662
1955.56470291
1956.1054775
1956.69582775
1957.33671359
1958.02907112
1958.77300834
1959.57195647
1960.41900729
1961.34584961
1962.27205494
1963.62624241
1965.26245007
1949.45767594
1949.60973472
1949.78327597
1949.99109027
1950.22254676
1950.47989196
1950.76147979
1951.06863091
1951.40333745
1951.76921213
1952.17042975
1952.61114095
1953.0944816
1953.62252593
1954.19620819
1954.81658559
1955.48290645
1956.20023053
1956.95381916
1957.79536229
1958.58073169
1959.89759588
1961.35070881
1946.59575344
1946.76661747
1946.94768256
1947.15299923
1947.37237435
1947.60927319
1947.86282073
1948.13508717
1948.42862641
1948.74743742
1949.09592442
1949.4783477
1949.89790782
1950.3567766
1950.8558703
1951.39660604
1951.97714753
1952.60568313
1953.25720063
1954.01096807
1954.64971865
1955.93078741
1957.24721265
1943.58229948
1943.770764
1943.95765912
1944.1583623
1944.36308542
1944.5764921
1944.7984588
1945.03178917
1945.27958089
1945.54620782
1945.83629918
1946.15423487
1946.50329026
1946.88578618
1947.30260608
1947.75579994
1948.24206878
1948.77428719
1949.31453848
1949.97557466
1950.46160855
1951.69926537
1952.9107269
1940.41088059
1940.61565854
1940.8064424
1941.0001035
1941.18726362
1941.37378308
1941.56027677
1941.75026976
1941.94738857
1942.15637385
1942.38207711
1942.62901014
1942.90052881
1943.19915936
1943.52570413
1943.8831451
1944.26621394
1944.69398725
1945.11316755
1945.67396707
1946.00008051
1947.18196935
1948.30762363
1937.07531963
1937.29503134
1937.48756016
1937.67149718
1937.83789945
1937.99383716
1938.1406561
1938.28259439
1938.42379443
1938.56935689
1938.72435235
1938.89343657
1939.08004385
1939.28696547
1939.51483901
1939.76789867
1940.03831731
1940.35276921
1940.64052436
1941.09142581
1941.25047857
1942.35873437
1943.40680383
1933.56964223
1933.80279029
1933.99472802
1934.16602816
1934.30821705
1934.42959937
1934.53224829
1934.62110974
1934.70083014
1934.77686388
1934.85449528
1934.93853538
1935.03248446
1935.13946198
1935.25982306
1935.39938807
1935.54714566
1935.73857938
1935.88401858
1936.21348935
1936.19656364
1937.21326697
1938.18540061
1929.88806648
1930.13301182
1930.32182756
1930.47735425
1930.5916227
1930.67420498
1930.72790067
1930.7583607
1930.77072409
1930.77079267
1930.7640563
1930.75549084
1930.74863891
1930.74701452
1930.75054153
1930.76696507
1930.7814666
1930.83933255
1930.83101062
1931.02607508
1930.82430804
1931.72868805
1932.62153005
1926.02501106
1926.27995394
1926.46291505
1926.59930786
1926.68169914
1926.72096774
1926.72063945
1926.68706929
1926.62587748
1926.54320652
1926.44473984
1926.33562619
1926.21941452
1926.10008276
1925.97694745
1925.8600118
1925.73005429
1925.6429337
1925.46877809
1925.51524661
1925.11788646
1925.89005302
1926.69942924
1921.9751148
1922.2380823
1922.4122471
1922.52591923
1922.57222655
1922.56339851
1922.50368682
1922.40015109
1922.2588806
1922.08635117
1921.88842351
1921.67042585
1921.43586486
1921.18925438
1920.92910325
1920.66799317
1920.38173976
1920.13733096
1919.78449521
1919.66700689
1919.06235522
1919.68119345
1920.40352195
1917.73326294
1918.00210266
1918.16431552
1918.25145175
1918.25721734
1918.19524032
1918.07049629
1917.89075122
1917.6625503
1917.39269437
1917.08720063
1916.75158221
1916.38924187
1916.00530381
1915.59724742
1915.18053755
1914.72550114
1914.31064175
1913.76543036
1913.46759199
1912.64177538
1913.0861739
1913.71982603
1913.29461698
1913.56699625
1913.71388543
1913.77044184
1913.73095735
1913.61051031
1913.41479627
1913.1522899
1912.82997767
1912.45497654
1912.03343425
1911.57105374
1911.0710594
1910.53926329
1909.97187357
1909.38752952
1908.75056598
1908.15127525
1907.39909759
1906.90357649
1905.84133914
1906.08895327
1906.63128947
1908.65464729
1908.92805724
1909.05603598
1909.07774172
1908.98805042
1908.80354649
1908.53063826
1908.17851268
1907.75458103
1907.26626675
1906.71981713
1906.12112974
1905.47316351
1904.78250023
1904.04381464
1903.27920624
1902.44651846
1901.64805257
1900.67342982
1899.96195245
1898.64753912
1898.67379729
1899.12048288
1903.80916633
1904.08093027
1904.18620101
1904.16856302
1904.02346421
1903.76905539
1903.41244719
1902.96354335
1902.43016153
1901.82002181
1901.13943469
1900.39449822
1899.58780563
1898.72679713
1897.80432951
1896.84625468
1895.80340879
1894.79030741
1893.57702467
1892.62926504
1891.04801104
1890.82663855
1891.171106
1898.7543624
1899.02164787
1899.10020979
1899.03852025
1898.83257608
1898.50216051
1898.05507206
1897.50193722
1896.85095983
1896.11014673
1895.28582968
1894.38431497
1893.40771724
1892.36443352
1891.245191
1890.07990568
1888.81186664
1887.56796572
1886.09968536
1884.89152548
1883.03064706
1882.53559523
1882.76867208
1893.48683384
1893.7466681
1893.79432714
1893.6836735
1893.41121843
1892.99845007
1892.45383619
1891.78873439
1891.0117123
1890.13105456
1889.15306638
1888.08427274
1886.92618444
1885.68826743
1884.35877254
1882.97201949
1881.46319953
1879.97141769
1878.23222884
1876.7364912
1874.58366954
1873.78937418
1873.90041058
1888.00362218
1888.25291043
1888.26529214
1888.10056957
1887.75572186
1887.25402295
1886.60458589
1885.81951086
1884.90770566
1883.8777252
1882.73579434
1881.48866877
1880.13712082
1878.69181689
1877.13814238
1875.51517586
1873.74966073
1871.99129647
1869.96588277
1868.15531794
1865.69642245
1864.57655316
1864.55472375
1882.3022459
1882.53779155
1882.51035509
1882.28628089
1881.86295661
1881.26553238
1880.50373621
1879.59042666
1878.53482772
1877.34576052
1876.02930953
1874.59246938
1873.03513833
1871.36933893
1869.57712999
1867.70269079
1865.66466324
1863.61883135
1861.29229686
1859.14131822
1856.3599757
1854.88682805
1854.72124871
1876.38073456
1876.59926038
1876.52731303
1876.23844155
1875.73036998
1875.03022624
1874.14831344
1873.09827051
1871.88961504
1870.53143584
1869.02961221
1867.39135269
1865.61558769
1863.71592343
1861.67070069
1859.52849504
1857.20205331
1854.84750547
1852.20480278
1849.6883121
1846.56672997
1844.71154062
1844.39118213
1870.23766508
1870.43583281
1870.31454275
1869.95528018
1869.35602025
1868.54598262
1867.53598856
1866.34048968
1864.9692793
1863.43173062
1861.73349989
1859.88191265
1857.87479814
1855.72739669
1853.41443643
1850.98740631
1848.35721395
1845.67321529
1842.69801947
1839.79090953
1836.31033368
1834.04378892
1833.55744761
1863.87220346
1864.04662705
1863.87103038
1863.43564376
1862.73860021
1861.8113495
1860.6651561
1859.31530079
1857.77185648
1856.04446864
1854.13853502
1852.06143609
1849.80992153
1847.40038953
1844.80527563
1842.07659028
1839.12682696
1836.0927296
1832.76795061
1829.44507901
1825.58592108
1822.87857612
1822.21480783
1857.28416887
1857.43141669
1857.19642166
1856.67905986
1855.87749757
1854.82554476
1853.53486761
1852.02161254
1850.29609097
1848.36818527
1846.24301725
1843.92820693
1841.41926869
1838.73324357
1835.84122991
1832.79392134
1829.50878537
1826.10404845
1822.41220299
1818.6484829
1814.39040435
1811.21302715
1810.36001339
1850.47401752
1850.59054135
1850.2909558
1849.68567556
1848.77276411
1847.58849973
1846.14500465
1844.45926635
1842.54178176
1840.40265207
1838.04668898
1835.48170411
1832.70220785
1829.72525222
1826.52164393
1823.13860961
1819.50227319
1815.70644709
1811.62999354
1807.40046788
1802.72289896
1799.04664044
1797.99196944
1843.44268162
1843.52486772
1843.15542265
1842.45614357
1841.42489065
1840.10050829
1838.49559581
1836.62802477
1834.50846106
1832.14721904
1829.54883378
1826.72118053
1823.65813281
1820.37605886
1816.84676014
1813.11180603
1809.10916188
1804.90422376
1800.42576631
1795.7029631
1790.58476355
1786.38138867
1785.11180853
1836.19138818
1836.23538163
1835.79072712
1834.99129387
1833.83474534
1832.3625048
1830.58767987
1828.52902888
1826.19739431
1823.60327344
1820.7509814
1817.64826074
1814.28873944
1810.6873284
1806.81814479
1802.71486504
1798.33032111
1793.69757107
1788.79908776
1783.56710988
1777.98268774
1773.2215361
1771.72276018
1828.72166088
1828.72392172
1828.19892714
1827.29332689
1826.00463507
1824.37687972
1822.42371769
1820.16479633
1817.61116158
1814.77346812
1811.65588617
1808.26583768
1804.59706466
1800.66237416
1796.43922367
1791.95185996
1787.16962543
1782.09171997
1776.75403201
1770.99232341
1764.92641759
1759.57572277
1757.83016391
1821.03561815
1820.99295681
1820.38275126
1819.36516068
1817.93763152
1816.14683382
1814.00702866
1811.53875921
1808.75331601
1805.66149218
1802.26739936
1798.57797888
1794.58739599
1790.30587531
1785.71489548
1780.82847951
1775.63280328
1770.09384707
1764.29732248
1757.98763411
1751.41921223
1745.4577864
1743.44202814
1813.13600311
1813.04556867
1812.34556074
1811.21038388
1809.63752172
1807.67633373
1805.34175578
1802.65524081
1799.62837657
1796.27208621
1792.59051437
1788.59000313
1784.26538321
1779.62401161
1774.65170862
1769.35220265
1763.72763158
1757.71327213
1751.43833957
1744.56503974
1737.4719864
1730.88140918
1728.570201
1805.02618631
1804.88547324
1804.09138289
1802.8332964
1801.10885633
1798.97016779
1796.43292745
1793.51952156
1790.24189921
1786.61111934
1782.63145294
1778.30857675
1773.63815691
1768.62459793
1763.25804627
1757.53250984
1751.46423646
1744.96179525
1738.18951537
1730.7397993
1723.09985428
1715.86523799
1713.23378195
1796.71014402
1796.51700637
1795.62489847
1794.23889684
1792.35693719
1790.03393587
1787.28645122
1784.13783809
1780.60048345
1776.68560665
1772.39769958
1767.74176635
1762.7144113
1757.31719303
1751.54428802
1745.38107605
1738.85535274
1731.85397335
1724.56666327
1716.53067366
1708.32220594
1700.43363161
1697.45746947
1788.19242558
1787.94509681
1786.95141554
1785.43285683
1783.38779418
1780.87402965
1777.90909979
1774.51737767
1770.71177824
1766.50372991
1761.89804411
1756.8991081
1751.5045147
1745.7132522
1739.5230296
1732.91205549
1725.91669466
1718.40757833
1710.58953991
1701.96053127
1693.16336702
1684.61606286
1681.26976661
1779.47810899
1779.17522559
1778.07683238
1776.42148671
1774.2081537
1771.49760648
1768.30849223
1764.66626935
1760.58448823
1756.07486441
1751.14263805
1745.79170143
1740.02065739
1733.82634211
1727.20939073
1720.14251218
1712.66753573
1704.64439413
1696.28289614
1687.05774323
1677.65442999
1668.45006966
1664.70567072
1770.57274312
1770.21337142
1769.0075849
1767.21168581
1764.82539374
1761.91255059
1758.49306457
1754.59356847
1750.22837744
1745.40960865
1740.14306175
1734.43232723
1728.27704386
1721.67243531
1714.62145054
1707.09306107
1699.13160999
1690.59153838
1681.67832179
1671.85884283
1661.83723678
1651.98533341
1647.81925823
1761.4822704
1761.06593406
1759.75057325
1757.81087352
1755.24748065
1752.12741867
1748.47202742
1744.30923056
1739.65426667
1734.51981525
1728.91240432
1722.8355972
1716.29014253
1709.27030774
1701.78085189
1693.78879694
1685.3384726
1676.283526
1666.81722564
1656.41289681
1645.77063286
1635.29306385
1630.69448715
1752.21292567
1751.73963305
1750.3130637
1748.22689691
1745.48288457
1742.15136524
1738.25530574
1733.82407175
1728.87402343
1723.41862288
1717.46535681
1711.01813788
1704.07900336
1696.64206086
1688.71361987
1680.26058761
1671.32546397
1661.76532508
1651.75537933
1640.78830015
1629.54016304
1618.47966125
1613.46540076
1742.7710737
1742.24134294
1740.70252861
1738.4678782
1735.54043581
1731.99401192
1727.85342492
1723.14967858
1717.90050616
1712.12045031
1705.81828002
1698.9987693
1691.66560248
1683.81373122
1675.45117093
1666.5467438
1657.14037315
1647.09666919
1636.56965366
1625.08340011
1613.27435623
1601.71157523
1596.35545405
1733.16327655
1732.57815279
1730.92671329
1728.54229573
1725.4294218
1721.66556564
1717.27765681
1712.29859093
1706.74779655
1700.6412982
1693.9896039
1686.79904929
1679.07559998
1670.81638396
1662.03191794
1652.69548606
1642.84526276
1632.35824999
1621.36796903
1609.44307956
1597.1720043
1585.26239585
1579.75773576
1723.39304096
1722.75414337
1720.99044778
1718.45582309
1715.15643256
1711.17366285
1706.53685016
1701.28111277
1695.42798736
1688.99551545
1681.99658149
1674.44004277
1666.33516815
1657.68312321
1648.49864503
1638.76318407
1628.51632028
1617.65502619
1606.29835785
1594.07971305
1581.54136705
1569.5997013
1564.38898626
1713.50378236
1712.81241065
1710.93751533
1708.2532261
1704.76765329
1700.56632758
1695.68134268
1690.15044693
1683.99781241
1677.24420085
1669.90575112
1661.99514227
1653.52649533
1644.50757817
1634.9602962
1624.87948751
1614.31226469
1603.18676883
1591.62111259
1579.34802556
1566.88404977
1555.51389149
1551.86363234
1703.03212074
1702.30353795
1700.33043461
1697.50812136
1693.84654311
1689.43621057
1684.31250199
1678.51659402
1672.07615201
1665.01578551
1657.35627618
1649.11603736
1640.3165011
1630.97558074
1621.12715756
1610.78621307
1600.01787415
1588.79507135
1577.25955286
1565.28131646
1553.37140662
1543.24492845
1542.9022508
1692.43747264
1691.67342644
1689.60292081
1686.64482419
1682.81032173
1678.19564109
1672.83975247
1666.78800673
1660.07239698
1652.72258644
1644.76555947
1636.22763486
1627.14047971
1617.53615153
1607.46626862
1596.9731287
1586.15196305
1575.03239827
1563.80113118
1552.47490343
1541.54119208
1532.88030965
1536.36800408
1681.68851358
1680.8916824
1678.72663164
1675.63729133
1671.63569138
1666.82451367
1661.2467679
1654.9528516
1647.98011731
1640.36472335
1632.14173375
1623.34790321
1614.02849414
1604.23406869
1594.0398713
1583.52209245
1572.81503134
1562.00951801
1551.33654539
1540.92476771
1531.16472883
1523.80626044
1530.42154217
1670.7994215
1669.97203667
1667.71566879
1664.50036848
1660.33869492
1655.3405359
1649.55347335
1643.03392685
1635.82578585
1627.97331687
1619.52173704
1610.52092782
1601.03314282
1591.13147473
1580.91940815
1570.51054587
1560.07982381
1549.7716099
1539.8385367
1530.42168725
1521.85263543
1515.48425042
1524.42464212
1659.78468761
1658.92889881
1656.58486466
1653.24970832
1648.93623797
1643.76234041
1637.78077026
1631.05503692
1623.63685125
1615.58030088
1606.94288097
1597.7901811
1588.20438522
1578.28396205
1568.16257398
1557.9898361
1547.97611286
1538.29257262
1529.16281721
1520.77546338
1513.25530143
1507.61562019
1518.36833458
1648.65674526