/*--------------------------------*- C++ -*----------------------------------*\
| =========                 |                                                 |
| \\      /  F ield         | OpenFOAM: The Open Source CFD Toolbox           |
|  \\    /   O peration     | Version:  2112                                  |
|   \\  /    A nd           | Website:  www.openfoam.com                      |
|    \\/     M anipulation  |                                                 |
\*---------------------------------------------------------------------------*/
FoamFile
{
    version     2.0;
    format      ascii;
    arch        "LSB;label=64;scalar=64";
    class       volScalarField;
    location    "0.0051";
    object      T.particles;
}
// * * * * * * * * * * * * * * * * * * * * * * * * * * * * * * * * * * * * * //

dimensions      [0 0 0 1 0 0 0];

internalField   nonuniform List<scalar> 
5589
(
1998.97768996
1998.99517129
1999.04619106
1999.11386269
1999.19327518
1999.27543181
1999.3569305
1999.43403988
1999.50512942
1999.5692562
1999.6263531
1999.67696193
1999.72193099
1999.76252084
1999.80006211
1999.83588051
1999.87032484
1999.90352649
1999.93365465
1999.95864708
1999.9758999
1999.98560922
1999.98870514
1998.78404867
1998.80091927
1998.85030399
1998.91851882
1999.00113747
1999.09018288
1999.18261869
1999.2745532
1999.36351353
1999.44741646
1999.52506376
1999.5959229
1999.6600029
1999.71791185
1999.77050738
1999.81864777
1999.86239776
1999.90112537
1999.93383326
1999.95948517
1999.97787016
1999.98930944
1999.993565
1998.51427621
1998.5367674
1998.60036095
1998.68786212
1998.79306744
1998.90657918
1999.0233476
1999.13790818
1999.24690534
1999.34778304
1999.4393931
1999.52158316
1999.59514331
1999.66141744
1999.72176836
1999.77707098
1999.82717303
1999.87107875
1999.90745048
1999.935888
1999.95665306
1999.97141206
1999.98047867
1998.27413966
1998.30036928
1998.37369378
1998.47449704
1998.59537787
1998.72603554
1998.86037441
1998.99221748
1999.11787237
1999.23463143
1999.341431
1999.43822743
1999.5258805
1999.60547992
1999.67781779
1999.74286993
1999.79979311
1999.84740609
1999.88545354
1999.91487375
1999.93731753
1999.95382823
1999.9644136
1998.0208549
1998.0508054
1998.13380369
1998.24792444
1998.38476671
1998.53313161
1998.6858869
1998.83604548
1998.97940807
1999.11296143
1999.2355716
1999.34718677
1999.44863472
1999.54073147
1999.62380448
1999.69726253
1999.76008083
1999.81161384
1999.85261094
1999.88515006
1999.91112246
1999.93162829
1999.94689271
1997.75871327
1997.79236776
1997.88489791
1998.01205428
1998.16449822
1998.33009628
1998.50080384
1998.66896844
1998.83001424
1998.98076199
1999.12004706
1999.24771774
1999.36429828
1999.4699684
1999.56426298
1999.6459403
1999.71403647
1999.76884585
1999.81256111
1999.8481948
1999.8778824
1999.90219586
1999.92121303
1997.48621484
1997.5234767
1997.62518885
1997.7648989
1997.93246128
1998.11486186
1998.30329262
1998.48955233
1998.66870897
1998.83737484
1998.99419532
1999.13868238
1999.27079682
1999.38994662
1999.49498283
1999.58446917
1999.65810965
1999.71751614
1999.76602884
1999.80694142
1999.84194384
1999.8712437
1999.89527916
1997.20124867
1997.24205304
1997.35266466
1997.50456829
1997.68693365
1997.88592282
1998.0920775
1998.2967235
1998.49456585
1998.68194227
1998.85715671
1999.01918168
1999.16721034
1999.29978983
1999.41520014
1999.51215522
1999.59137968
1999.65584616
1999.70975907
1999.75633524
1999.7968642
1999.83138316
1999.86081742
1996.90195118
1996.94625847
1997.06554599
1997.22938377
1997.42636799
1997.64190017
1997.86596044
1998.08944072
1998.30664519
1998.51352708
1998.70787088
1998.88791536
1999.05196105
1999.19776855
1999.32337694
1999.42814362
1999.51410842
1999.58543747
1999.64663547
1999.70041608
1999.74748333
1999.78785617
1999.823341
1996.58653519
1996.63433373
1996.76214183
1996.93776248
1997.14931238
1997.38149317
1997.62378279
1997.86664195
1998.10391334
1998.3310376
1998.54510888
1998.7434778
1998.9235032
1999.08231333
1999.21804388
1999.33102946
1999.42464046
1999.50389282
1999.57318291
1999.63463038
1999.68853452
1999.73517153
1999.77750047
1996.25332658
1996.304631
1996.44086853
1996.62821479
1996.85438045
1997.103421
1997.36434646
1997.62716355
1997.88517927
1998.13318919
1998.36744482
1998.58430936
1998.78024779
1998.95201784
1999.09823322
1999.22045591
1999.32325238
1999.41206429
1999.49080523
1999.56089949
1999.62231465
1999.67571955
1999.72557629
1995.90073409
1995.95557852
1996.10020199
1996.29928273
1996.54017964
1996.80634868
1997.08634762
1997.36969082
1997.64906818
1997.91850239
1998.17327647
1998.40872326
1998.62053363
1998.80538776
1998.96267726
1999.09524727
1999.20856406
1999.30809321
1999.39707397
1999.47633461
1999.54570414
1999.6064316
1999.6647877
1995.5271938
1995.5856235
1995.73861744
1995.94947809
1996.20525157
1996.48883528
1996.78833781
1997.09273488
1997.39401583
1997.68531518
1997.9608574
1998.21496528
1998.44274262
1998.64109926
1998.81042336
1998.95476589
1999.08014006
1999.19169465
1999.29188972
1999.38104851
1999.45898288
1999.52763146
1999.59540368
1995.13111794
1995.19318129
1995.35453969
1995.57723621
1995.84803217
1996.14930364
1996.46870543
1996.79462585
1997.11827254
1997.43179488
1997.72830861
1998.00120245
1998.24521494
1998.45775127
1998.64028731
1998.79787106
1998.93669208
1999.06134051
1999.17351145
1999.27317802
1999.36027712
1999.43755255
1999.51587659
1994.71085647
1994.77659821
1994.94630913
1995.1808871
1995.46682939
1995.78602624
1996.12567008
1996.47351463
1996.81991187
1997.15595343
1997.47363957
1997.76554898
1998.02628909
1998.25396372
1998.45111492
1998.62350741
1998.77717425
1998.91599837
1999.0409776
1999.15187003
1999.24883471
1999.33550437
1999.42555429
1994.26467314
1994.33412897
1994.51216216
1994.75864051
1995.05981344
1995.3971208
1995.75728301
1996.12737729
1996.49683821
1996.85565594
1997.19475083
1997.50604802
1997.78424101
1998.02824945
1998.24155466
1998.43031929
1998.60014541
1998.75414692
1998.89273834
1999.01559786
1999.12319253
1999.22012339
1999.32322453
1993.790733
1993.86392535
1994.05022243
1994.30858036
1994.62501441
1994.98055087
1995.36143013
1995.75401996
1996.14679297
1996.52862659
1996.8894351
1997.22066285
1997.51726875
1997.77901639
1998.01012262
1998.21683093
1998.40410942
1998.57430654
1998.72738044
1998.86303938
1998.98211674
1999.09025185
1999.20781938
1993.28709783
1993.36403232
1993.55849856
1993.82866444
1994.16032358
1994.53412844
1994.93583551
1995.35108275
1995.76735819
1996.17244885
1996.55536781
1996.90725032
1997.22344596
1997.50450461
1997.75512351
1997.98133457
1998.18733786
1998.37476662
1998.54325148
1998.69262128
1998.82411856
1998.94449059
1999.07806609
1992.75172613
1992.83238856
1993.03488551
1993.31672681
1993.6634966
1994.05551747
1994.47806492
1994.91604291
1995.35595776
1995.78456156
1996.19009298
1996.56353392
1996.90068795
1997.20276068
1997.47465
1997.7219247
1997.94794303
1998.15370038
1998.33861711
1998.50270924
1998.64765485
1998.78138085
1998.93262222
1992.18247576
1992.26682929
1992.47716797
1992.77048163
1993.13215752
1993.54223785
1993.98552927
1994.44621699
1994.90985647
1995.36225078
1995.79100342
1996.1870711
1996.54671175
1996.87159949
1997.16654971
1997.43646279
1997.68382839
1997.90909295
1998.11156626
1998.29149742
1998.45101521
1998.59930411
1998.77000185
1991.57710796
1991.66509046
1991.88302488
1992.18752796
1992.56380366
1992.99167
1993.45548843
1993.93876263
1994.42615707
1994.90263834
1995.3553175
1995.77521975
1996.1589998
1996.50857462
1996.82840647
1997.1225675
1997.39268463
1997.63874289
1997.86001955
1998.05702331
1998.23233984
1998.3964977
1998.5885835
1990.93329245
1991.02481395
1991.25003488
1991.56535548
1991.95581135
1992.40106028
1992.88505558
1993.39068013
1993.90179607
1994.40266804
1994.8800538
1995.32510387
1995.73476379
1996.1109467
1996.45751368
1996.77758846
1997.07195939
1997.34022692
1997.5816904
1997.79712796
1997.98958201
1998.17102287
1998.38658669
1990.24861336
1990.34355362
1990.57568271
1990.90135118
1991.30544286
1991.76752768
1992.27120252
1992.79881441
1993.33353899
1993.85909079
1994.36200504
1994.83357984
1995.27090992
1995.67565223
1996.05084643
1996.39857871
1996.71882867
1997.01087097
1997.27405767
1997.50943125
1997.72048617
1997.92074428
1998.16205027
1989.52057609
1989.61878235
1989.85736669
1990.19280733
1990.60985469
1991.08807197
1991.61076646
1992.15985798
1992.71797606
1993.26845
1993.79771291
1994.29720434
1994.7640048
1995.19927037
1995.60502824
1995.98225932
1996.33015879
1996.6477112
1996.93432767
1997.19129672
1997.42255664
1997.64330434
1997.91281473
1988.74661514
1988.84790006
1989.09240729
1989.43693077
1989.86610754
1990.35958372
1990.90045873
1991.47035557
1992.05151953
1992.62706887
1993.18344541
1993.71220446
1994.21024227
1994.67798765
1995.11629268
1995.5249772
1995.90246178
1996.24744921
1996.55939138
1996.83979182
1997.09302117
1997.33608886
1997.63648908
1987.92410303
1988.02824292
1988.27805716
1988.63085392
1989.07117826
1989.57885664
1990.13687582
1990.72671154
1991.33040403
1991.93104137
1992.51517817
1993.07445147
1993.60541119
1994.10756002
1994.580439
1995.02265505
1995.43184202
1995.80639861
1996.14577345
1996.45164085
1996.72878806
1996.9961884
1997.3304153
1987.05036032
1987.15709372
1987.41151243
1987.77164731
1988.22197369
1988.74260219
1989.3165135
1989.92520075
1990.55069136
1991.17622865
1991.78858182
1992.3794394
1992.94486519
1993.48327268
1993.99278175
1994.47073256
1994.91393306
1995.32042171
1995.68957187
1996.02316931
1996.32639613
1996.6203541
1996.99163222
1986.12266681
1986.23169348
1986.48992558
1986.85633406
1987.31534691
1987.84746719
1988.43578438
1989.06198408
1989.70828136
1990.35826297
1990.99901751
1991.62227057
1992.22349594
1992.79989884
1993.34809469
1993.86409859
1994.34382322
1994.78485384
1995.18638499
1995.55023575
1995.88195176
1996.20493962
1996.61682178
1985.13827391
1985.24925441
1985.51041972
1985.88190604
1986.34811562
1986.89005418
1987.49103945
1988.13312942
1988.79893018
1989.47256108
1990.14154281
1990.79765055
1991.43571255
1992.05165946
1992.64055022
1993.19701377
1993.71596807
1994.19441275
1994.63122341
1995.02814951
1995.39105389
1995.74583339
1996.20224923
1984.09441809
1984.20697393
1984.47010433
1984.84534187
1985.31708283
1985.86694495
1986.47859397
1987.13463896
1987.81827753
1988.51434928
1989.21093109
1989.89989615
1990.57543091
1991.23218774
1991.86365685
1992.46302444
1993.02408837
1993.54308976
1994.01840215
1994.45156896
1994.84870063
1995.23837431
1995.74368839
1982.98833538
1983.10204992
1983.36609231
1983.74362643
1984.21905964
1984.77472698
1985.39475782
1986.06248325
1986.76188383
1987.47870183
1988.20170702
1988.92296055
1989.63607835
1990.3345039
1991.0101992
1991.65486979
1992.26105261
1992.82401902
1993.34140779
1993.8143747
1994.24917261
1994.67724626
1995.23632863
1981.81727669
1981.93169682
1982.19551808
1982.57377189
1983.05088991
1983.61002271
1984.23587018
1984.91264222
1985.62527795
1986.36059438
1987.1082014
1987.8604805
1988.61062046
1989.3510081
1990.07218774
1990.76438685
1991.41874444
1992.02932122
1992.59273405
1993.10950985
1993.58588553
1994.05634573
1994.67465873
1980.57852369
1980.69316244
1980.95555667
1981.33283972
1981.80947649
1982.3695211
1982.99833816
1983.68115277
1984.40401559
1985.15497331
1985.9246278
1986.70585095
1987.49161849
1988.2735026
1989.04082983
1989.78242233
1990.48791901
1991.14991916
1991.76367779
1992.3287765
1992.85120052
1993.36861176
1994.05231865
1979.26940513
1979.38374529
1979.6434433
1980.01796359
1980.49180844
1981.05001102
1981.67867858
1982.36416207
1983.0937474
1983.85684072
1984.64518263
1985.45233181
1986.27132665
1987.09325688
1987.9065384
1988.6987666
1989.4580575
1990.17532567
1990.8440869
1991.46257418
1992.03617673
1992.60580449
1993.36190832
1977.88731289
1978.00081185
1978.25649321
1978.62637238
1979.09498871
1979.64841541
1980.27356165
1980.95798492
1981.69029507
1982.46135367
1983.26416874
1984.09319049
1984.94183849
1985.80113218
1986.65900097
1987.50213414
1988.31723934
1989.09341153
1989.82205333
1990.49956168
1991.13024255
1991.75820951
1992.59473378
1976.42971749
1976.5418135
1976.79212115
1977.15541301
1977.61626153
1978.16182537
1978.77985508
1979.45916294
1980.18973223
1980.9639341
1981.77613979
1982.62188072
1983.49528971
1984.38778262
1985.28733762
1986.18022728
1987.05206752
1987.89017551
1988.68355156
1989.42622151
1990.1207531
1990.81423673
1991.74046869
1974.89418239
1975.00430267
1975.24786037
1975.60257258
1976.05303884
1976.58753293
1977.19466684
1977.86452284
1978.58846617
1979.36038398
1980.1760595
1981.03225345
1981.92411922
1982.84394738
1983.78037973
1984.71993238
1985.64770436
1986.54956365
1987.41203961
1988.22630577
1988.99238364
1989.75985236
1990.78667152
1973.27837615
1973.38594757
1973.62138043
1973.96549913
1974.40292499
1974.92306157
1975.51538477
1976.17123085
1976.88331575
1977.64699886
1978.45946642
1979.31879004
1980.22138319
1981.16084135
1982.12710108
1983.10771185
1984.08810816
1985.05343225
1985.98808637
1986.88016865
1987.72630989
1988.57777912
1989.71813009
1971.58008133
1971.6845448
1971.91050325
1972.24202029
1972.66373836
1973.16619232
1973.73971006
1974.37683853
1975.07157772
1975.82066792
1976.62262729
1977.47683531
1978.38109719
1979.33062708
1980.31720871
1981.33024362
1982.35657532
1983.38179227
1984.3891403
1985.36401004
1986.2990721
1987.24625339
1988.5157504
1969.79719853
1969.89802983
1970.11321838
1970.43016166
1970.83353301
1971.31498944
1971.86568933
1972.47932522
1973.15108689
1973.87896426
1974.66267861
1975.50282418
1976.39859548
1977.34696053
1978.34191189
1979.37538944
1980.4367712
1981.51362931
1982.5897888
1983.64931721
1984.68125312
1985.7373712
1987.15523079
1967.92774334
1968.02448173
1968.22769018
1968.52815228
1968.91060134
1969.36780007
1969.89171145
1970.47709367
1971.12021408
1971.82015324
1972.57766262
1973.39437835
1974.27074536
1975.20540737
1976.19463789
1977.23327506
1978.31411785
1979.42831442
1980.56264204
1981.70256041
1982.83560536
1984.01390611
1985.60332516
1965.96982894
1966.06213548
1966.25229519
1966.53448391
1966.89355658
1967.32336168
1967.81664311
1968.3691369
1968.97806929
1969.64344032
1970.36683569
1971.15070801
1971.99650563
1972.90426996
1973.87229852
1974.89820502
1975.97850927
1977.10902451
1978.28187623
1979.48774177
1980.71743574
1982.02754664
1983.81659886
1963.92165017
1964.0093229
1964.18547151
1964.44764656
1964.78094048
1965.18026909
1965.63914127
1966.15418092
1966.72345765
1967.34772173
1968.02919715
1968.77091103
1969.57501343
1970.44253344
1971.37326216
1972.36695904
1973.42332996
1974.54278507
1975.72401442
1976.96641965
1978.27071789
1979.7075932
1981.71865408
1961.78130524
1961.86479568
1962.02666619
1962.26775309
1962.57358455
1962.94012426
1963.36164679
1963.83557485
1964.36072023
1964.93842815
1965.57138685
1966.26297547
1967.01575306
1967.83130031
1968.71025466
1969.65357161
1970.66286538
1971.74163786
1972.89392488
1974.12851354
1975.46065404
1976.99106322
1979.23281044
1959.54761148
1959.62568423
1959.77050953
1959.98662968
1960.26037248
1960.58878007
1960.96691431
1961.39292421
1961.86628666
1962.3888194
1962.9635516
1963.59406176
1964.28311634
1965.03252477
1965.84322944
1966.71648044
1967.65428031
1968.6608675
1969.74168045
1970.91075172
1972.18862961
1973.72115081
1976.03941167
1957.21434391
1957.30886105
1957.45874629
1957.67116281
1957.93337727
1958.24373322
1958.59814042
1958.99555978
1959.43615306
1959.92224456
1960.45721547
1961.04484575
1961.68805445
1962.38876339
1963.14797635
1963.96684365
1964.8469212
1965.79185398
1966.80486676
1967.90163375
1969.08768362
1970.56504514
1972.7234216
1954.75950197
1954.87177577
1955.02777761
1955.23714722
1955.48802858
1955.78009705
1956.11008803
1956.47775979
1956.88390793
1957.33131201
1957.82364428
1958.3648293
1958.957879
1959.60477034
1960.30649516
1961.06405055
1961.87830595
1962.75236615
1963.68519877
1964.69688275
1965.75793964
1967.16337544
1969.04329075
1952.17881294
1952.31104928
1952.47582298
1952.68455325
1952.92607869
1953.2013848
1953.50802793
1953.84655766
1954.21838093
1954.62670603
1955.07546667
1955.56870568
1956.10950014
1956.69986656
1957.34076453
1958.03313008
1958.77707234
1959.57602121
1960.42307778
1961.34990641
1962.2761677
1963.6302259
1965.26699276
1949.46180206
1949.61385376
1949.78739575
1949.99521798
1950.22668942
1950.48405477
1950.76566706
1951.07284602
1951.40758294
1951.77348967
1952.17473993
1952.6154832
1953.09885422
1953.62692628
1954.20063325
1954.82103187
1955.48737194
1956.2047094
1956.95832009
1957.79985129
1958.58530288
1959.90200649
1961.35568618
1946.60021087
1946.77106671
1946.95213219
1947.15745775
1947.37685023
1947.61377307
1947.86735038
1948.13965134
1948.43322899
1948.75208133
1949.10061149
1949.48307852
1949.90268179
1950.36159209
1950.86072524
1951.40149739
1951.98207436
1952.61063737
1953.26219588
1954.01595485
1954.65481502
1955.93570633
1957.2527164
1943.58711395
1943.77556927
1943.96246506
1944.16317891
1944.36792277
1944.58135838
1944.80336128
1945.03673406
1945.28457346
1945.55125234
1945.84139875
1946.15939128
1946.50850408
1946.8910568
1947.30793248
1947.7611795
1948.24750203
1948.7797635
1949.32007755
1949.98111236
1950.46728556
1951.70476737
1952.91683904
1940.4160784
1940.62084612
1940.81163128
1941.00530537
1941.19249032
1941.37904444
1941.56558168
1941.75562598
1941.95280288
1942.16185194
1942.38762345
1942.63462782
1942.90621966
1943.20492392
1943.5315426
1943.88905531
1944.27219835
1944.70003256
1945.11930052
1945.68011034
1946.00639739
1947.1881351
1948.3144222
1937.08092805
1937.30062848
1937.49315952
1937.67711235
1937.8435442
1937.99952311
1938.14639387
1938.28839343
1938.42966311
1938.57530246
1938.73038076
1938.89955236
1939.08625029
1939.29326433
1939.52123198
1939.7743841
1940.04490013
1940.35943342
1940.64730436
1941.09823249
1941.25749086
1942.36562026
1943.41439271
1933.57568958
1933.80882535
1934.00076654
1934.17208581
1934.31430969
1934.43574056
1934.53845055
1934.6273843
1934.70718713
1934.78331223
1934.8610426
1934.9451878
1935.03924685
1935.14633754
1935.26681524
1935.40649584
1935.55437694
1935.74591556
1935.89150214
1936.2210212
1936.20434837
1937.22096246
1938.19385987
1929.89458216
1930.13951428
1930.32833507
1930.48388475
1930.59819432
1930.68083337
1930.73460038
1930.76514492
1930.77760484
1930.77778072
1930.77116109
1930.76272026
1930.75599965
1930.7545114
1930.75818005
1930.77474501
1930.78939934
1930.84739711
1930.83925786
1931.0343966
1930.83292231
1931.73721822
1932.63098054
1926.03202555
1926.28695443
1926.46992257
1926.6063428
1926.68878211
1926.72811661
1926.72787098
1926.69439877
1926.633319
1926.55077287
1926.45244245
1926.34347492
1926.22741814
1926.10824788
1925.98528201
1925.86851653
1925.73874456
1925.65178641
1925.47785296
1925.52442683
1925.12741993
1925.89953474
1926.70995206
1921.9826596
1922.24561251
1922.41978681
1922.53349142
1922.57985447
1922.57110248
1922.51148594
1922.40806293
1922.26692148
1922.09453609
1921.89676611
1921.67893818
1921.44455799
1921.19813698
1920.93818605
1920.6772781
1920.39124673
1920.14703502
1919.79446569
1919.67711823
1919.07287739
1919.69165172
1920.41524573
1917.74137053
1918.01019532
1918.17242066
1918.25959514
1918.26542506
1918.20353527
1918.07890011
1917.89928395
1917.67123068
1917.40153979
1917.09622718
1916.76080433
1916.39867324
1916.01495541
1915.60713317
1915.19066082
1914.73588701
1914.32126365
1913.77636837
1913.47871133
1912.65338176
1913.0977488
1913.73284225
1913.30332075
1913.57568505
1913.72259029
1913.77919145
1913.73978084
1913.61943335
1913.42384321
1913.16148343
1912.83933915
1912.46452599
1912.0431904
1911.58103368
1911.08127974
1910.54973758
1909.98261936
1909.39855189
1908.76189585
1908.16288458
1907.41107878
1906.91578405
1905.85411959
1906.10172704
1906.6457199
1908.66398144
1908.93737672
1909.06537576
1909.08713356
1908.9975267
1908.81313584
1908.54036793
1908.1884082
1907.7646666
1907.27656521
1906.73035013
1906.1319173
1905.48422545
1904.79385295
1904.05547983
1903.29119092
1902.4588602
1901.66072187
1900.68653336
1899.97533219
1898.66158975
1898.68787713
1899.13646146
1903.81916577
1904.09091572
1904.19621171
1904.17863398
1904.03363125
1903.77935027
1903.42290029
1902.97418322
1902.44101543
1901.83111564
1901.15079328
1900.40614475
1899.59976353
1898.73908592
1897.81697554
1896.85926715
1895.81683282
1894.80411189
1893.59133272
1892.64390636
1891.06343065
1890.84212673
1891.18877625
1898.76506264
1899.03233522
1899.11092811
1899.04930797
1898.84347268
1898.51320104
1898.06629024
1897.51336484
1896.86262741
1896.12208348
1895.29806389
1894.39687327
1893.42062701
1892.37771773
1891.25888118
1890.09401346
1888.82644566
1887.58298313
1886.11528166
1884.9075211
1883.04754109
1882.5525976
1882.7881852
1893.49827084
1893.75809375
1893.80579034
1893.69521622
1893.42288403
1893.01027711
1892.46586189
1891.80099401
1891.02423988
1890.14388283
1889.16622739
1888.09779684
1886.94010337
1885.70260787
1884.37357184
1882.98729188
1881.47900824
1879.98772855
1878.24919845
1876.75392781
1874.60215508
1873.80800336
1873.9219259
1888.01583221
1888.26511115
1888.27753788
1888.112906
1887.76819643
1887.26667791
1886.61746221
1885.83264746
1884.92114032
1883.89149444
1882.74993425
1881.50321373
1880.15210729
1878.70727557
1877.1541171
1875.53168364
1873.7667751
1872.00898459
1869.98431168
1868.17428815
1865.71661126
1864.59692911
1864.57841006
1882.31526537
1882.55080427
1882.52342127
1882.29945002
1881.87628047
1881.2790571
1880.51750671
1879.60448574
1878.54921713
1877.36052083
1876.04448114
1874.60809102
1873.05125161
1871.3859788
1869.59434749
1867.72050612
1865.68315964
1863.637973
1861.31226771
1859.16192913
1856.38198
1854.90907635
1854.74728467
1876.39459986
1876.61312202
1876.54123759
1876.25248249
1875.74458362
1875.04466276
1874.16302193
1873.11329788
1871.90500725
1870.54723772
1869.04586879
1867.4081074
1865.63288766
1863.733808
1861.68922841
1859.54769156
1857.22199795
1854.86817963
1852.22641649
1849.71066265
1846.5906627
1844.73579153
1844.41975592
1870.25241236
1870.4505801
1870.32936352
1869.97023197
1869.37116413
1868.56137299
1867.55167894
1866.35653128
1864.98572253
1863.44862479
1861.7508948
1859.89985678
1857.89334464
1855.74659004
1853.43433167
1851.00804095
1848.37869254
1845.69551573
1842.72136589
1839.81510133
1836.33630808
1834.07017724
1833.58875679
1863.88786838
1864.06229627
1863.88678484
1863.45154516
1862.75471459
1861.8277356
1860.68187203
1859.33240231
1857.78939867
1856.06250557
1854.1571205
1852.08061922
1849.82976496
1847.4209428
1844.8266126
1842.09874662
1839.14991676
1836.11673935
1832.79311868
1829.47121477
1825.61404951
1822.90724092
1822.24905937
1857.30078632
1857.44804345
1857.21314671
1856.6959491
1855.89462221
1854.84296773
1853.55265041
1852.03981593
1850.31477463
1848.38740807
1846.26283934
1843.94868667
1841.44047199
1838.75522647
1835.86407429
1832.81767021
1829.53356118
1826.12984993
1822.43927966
1818.67666522
1814.42079689
1811.24411129
1810.39742347
1850.49162146
1850.60816019
1850.30868663
1849.70358809
1848.7909348
1847.60699625
1846.16389446
1844.47861444
1842.56165302
1840.42311069
1838.06780099
1835.50353372
1832.72482757
1829.74872501
1826.54605949
1823.16402027
1819.528808
1815.73412172
1811.65906312
1807.43079878
1802.75566142
1799.08028988
1798.03276313
1843.46130542
1843.54351206
1843.17419379
1842.4751155
1841.44414566
1840.12011899
1838.51563487
1836.64856222
1834.5295671
1832.16896331
1829.57128811
1826.74441531
1823.68222669
1820.40108273
1816.87280893
1813.13894572
1809.1375201
1804.93384468
1800.4568965
1795.73554166
1790.61999623
1786.41775209
1785.15621956
1836.21106461
1836.25508559
1835.81057396
1835.01136195
1833.85512262
1832.3832689
1830.60890871
1828.55079771
1826.21977879
1823.62634888
1820.7748256
1817.6729508
1814.31436025
1810.71396016
1806.84588664
1802.74380099
1798.36057154
1793.72922595
1788.83235238
1783.60202334
1778.02046725
1773.26076552
1771.77103136
1828.74242232
1828.74471751
1828.2198825
1827.31452475
1826.0261693
1824.39883314
1822.44617366
1820.18783552
1817.63486526
1814.79791747
1811.68116511
1808.29203029
1804.62426213
1800.69066659
1796.46871413
1791.98265172
1787.20183087
1782.12547788
1776.78950467
1771.02969755
1764.96679556
1759.61797102
1757.88254749
1821.05749559
1821.0148752
1820.40484638
1819.38752027
1817.96035561
1816.17001059
1814.03074711
1811.56310559
1808.77837734
1805.68735571
1802.2941552
1798.60571838
1794.61621661
1790.3358775
1785.74618616
1780.86118175
1775.66702159
1770.12977042
1764.3350704
1758.02755268
1751.46226791
1745.50320225
1743.49878402
1813.15902592
1813.06863878
1812.36882519
1811.23393541
1809.66146673
1807.70076593
1805.36676992
1802.68092887
1799.65483145
1796.29940133
1792.61878612
1788.61933024
1784.2958695
1779.65576805
1774.6848461
1769.38686396
1763.76391439
1757.75141512
1751.47842279
1744.60757485
1737.51779233
1730.93014143
1728.63159173
1805.05038201
1804.90972235
1804.1158443
1802.858068
1801.13405108
1798.99588508
1796.4592679
1793.54658295
1790.2697804
1786.63992
1782.66127575
1778.33952791
1773.67034656
1768.65814749
1763.2930709
1757.56917129
1751.50262744
1745.00220179
1738.2319846
1730.7850086
1723.14847218
1715.91742616
1713.3000575
1796.73553815
1796.54245968
1795.65058234
1794.26491438
1792.38340808
1790.06096528
1787.31414572
1784.16630132
1780.62982022
1776.7159229
1772.42910423
1767.77437297
1762.74833634
1757.35256799
1751.58123269
1745.41976968
1738.89588565
1731.89667497
1724.61155743
1716.57859748
1708.37368598
1700.48939892
1697.52886616
1788.21904158
1787.97177739
1786.97834508
1785.46014375
1783.41556499
1780.90239537
1777.93817294
1774.54726776
1770.74259599
1766.53558742
1761.93105641
1756.93339587
1751.54020052
1745.75047701
1739.56191813
1732.95280244
1725.95939092
1718.45259136
1710.63688246
1702.01118852
1693.2177496
1684.67555526
1681.34638098
1779.50596815
1779.20315423
1778.10502841
1776.45006388
1774.23724542
1771.52732963
1768.33896526
1764.69760755
1760.61680807
1756.10828394
1751.17727813
1745.82768939
1740.05812162
1733.8654319
1727.25023588
1720.18532013
1712.71240088
1704.69171553
1696.33268915
1687.11112416
1677.71173443
1668.51336805
1664.7876599
1770.60186456
1770.24256665
1769.03706581
1767.24157149
1764.85582448
1761.94364911
1758.52495511
1754.62637194
1750.2622158
1745.44460552
1740.17934334
1734.47002681
1728.31629493
1721.71339403
1714.66425134
1707.13792076
1699.17862871
1690.64113921
1681.7305363
1671.91489642
1661.89744306
1652.05246379
1647.90667333
1761.51267117
1761.09641222
1759.78135506
1757.84208333
1755.2792656
1752.1599072
1748.50534935
1744.34351212
1739.68963488
1734.55639873
1728.95033392
1722.87501099
1716.331178
1709.31312573
1701.82559022
1693.83567729
1685.38760158
1676.33534152
1666.87178664
1656.47151027
1645.83365089
1635.36394723
1630.78718874
1752.24462094
1751.77140845
1750.3451602
1748.25944399
1745.51603608
1742.1852551
1738.29006908
1733.85983965
1728.91092738
1723.45679564
1717.50493275
1711.05925827
1704.12180785
1696.68671189
1688.76025592
1680.30942915
1671.3766219
1661.81923999
1651.81214296
1640.84926621
1629.60578225
1618.5540335
1613.5629045
1742.80407721
1742.27442832
1740.73595178
1738.50177355
1735.57496367
1732.02931141
1727.88963598
1723.18693654
1717.93894608
1712.16020792
1705.85949162
1699.04157709
1691.71014545
1683.86016892
1675.49963771
1666.59745011
1657.19342725
1647.15249672
1636.62837358
1625.14636509
1613.34215932
1601.78883965
1596.45662857
1733.19760033
1732.61255909
1730.96147301
1728.57754786
1725.46533282
1721.70227943
1717.31531748
1712.33733718
1706.78776587
1700.68262761
1694.03242944
1686.8435109
1679.12183184
1670.86453635
1662.0821132
1652.74791163
1642.90000997
1632.4157019
1621.42824734
1609.50746145
1597.24122229
1585.34134193
1579.86018298
1723.4287069
1722.78989113
1721.02656313
1718.4924492
1715.19374175
1711.2118032
1706.57596922
1701.32135152
1695.46948423
1689.03840662
1682.04099988
1674.48612178
1666.38303145
1657.73290298
1648.55043982
1638.81713894
1628.57248449
1617.71369394
1606.35959876
1594.14459569
1581.61067183
1569.6779779
1564.48782213
1713.5406694
1712.84938063
1710.97486532
1708.29110208
1704.80623148
1700.60575834
1695.72177478
1690.19202107
1684.04066475
1677.28846276
1669.95154723
1662.04259256
1653.57570374
1644.55864561
1635.01327957
1624.93446222
1614.3692006
1603.24580754
1591.68218643
1579.41178523
1566.95110893
1555.58719539
1551.94725885
1703.07006921
1702.3415717
1700.36886691
1697.54709966
1693.88624812
1689.47679412
1684.35411346
1678.5593724
1672.12022926
1665.06128514
1657.4033102
1649.16470573
1640.36687897
1631.02772347
1621.18106141
1610.84185226
1600.07509707
1588.85378366
1577.31944433
1565.3423214
1553.43377485
1543.30915085
1542.96191362
1692.47656511
1691.71260018
1689.64250694
1686.68496999
1682.85121228
1678.23742891
1672.88258678
1666.83202352
1660.1177221
1652.76933251
1644.81382149
1636.27748606
1627.1919567
1617.58924994
1607.52090371
1597.02914484
1586.20904474
1575.09015665
1563.85894357
1552.53195196
1541.59733086
1532.9352914
1536.41140826
1681.72888568
1680.93212837
1678.76749739
1675.67872295
1671.67787689
1666.86760445
1661.29091058
1654.99817589
1648.02673859
1640.41273753
1632.1912109
1623.39887957
1614.08095393
1604.28793096
1594.09494824
1583.57807819
1572.87142492
1562.06565464
1551.39156249
1540.97747647
1531.21511104
1523.85487688
1530.4607442
1670.84104228
1670.01372545
1667.75778356
1664.54305244
1660.38213721
1655.3848846
1649.59886986
1643.08049121
1635.87361855
1628.02249144
1619.57229126
1610.57285167
1601.0863569
1591.18580976
1580.97456274
1570.56606528
1560.1350464
1549.82568514
1539.89053127
1530.4707229
1521.89867399
1515.52909774
1524.46390354
1659.82752122
1658.97179476
1656.62819128
1653.29360397
1648.98089099
1643.80789318
1637.82735611
1631.10276257
1623.68579775
1615.63051363
1606.99435849
1597.84285932
1588.2581133
1578.33847781
1568.21746644
1558.04452791
1548.02983395
1538.34444689
1529.21218992
1520.82137222
1513.29840037
1507.65819419
1518.40783372
1648.70076057
1647.81891321