/*--------------------------------*- C++ -*----------------------------------*\
| =========                 |                                                 |
| \\      /  F ield         | OpenFOAM: The Open Source CFD Toolbox           |
|  \\    /   O peration     | Version:  2112                                  |
|   \\  /    A nd           | Website:  www.openfoam.com                      |
|    \\/     M anipulation  |                                                 |
\*---------------------------------------------------------------------------*/
FoamFile
{
    version     2.0;
    format      ascii;
    arch        "LSB;label=64;scalar=64";
    class       volScalarField;
    location    "0.0051";
    object      Tslip;
}
// * * * * * * * * * * * * * * * * * * * * * * * * * * * * * * * * * * * * * //

dimensions      [0 0 0 1 0 0 0];

internalField   nonuniform List<scalar> 
5589
(
-0.000306216186573
-0.000294202113537
-0.000266860652573
-0.000233170605497
-0.000197091825612
-0.000161143729429
-0.000128034011368
-9.90547846413e-05
-7.48068780467e-05
-5.51259765871e-05
-3.94910714476e-05
-2.71299202268e-05
-1.72663931153e-05
-9.10252720132e-06
-2.29541819863e-06
3.34808214575e-06
7.69185362515e-06
1.04201669728e-05
1.10895625767e-05
9.9104331639e-06
7.65469508224e-06
5.27383372173e-06
3.92374499825e-06
4.38016422777e-05
4.29183016877e-05
4.04636837175e-05
3.67133291093e-05
3.21169286508e-05
2.67406385319e-05
2.10820803659e-05
1.53563812546e-05
1.00593258594e-05
5.53333961761e-06
1.98941120289e-06
-5.46679757463e-07
-2.10135635825e-06
-2.85664123112e-06
-2.94227515951e-06
-2.71834369414e-06
-2.31609215007e-06
-1.86979855243e-06
-1.34790866468e-06
-1.0030712474e-06
-7.26307689547e-07
-8.8057481662e-07
-9.07539742911e-07
6.7448815571e-05
6.45616930797e-05
5.71106309053e-05
4.76227353374e-05
3.71791952603e-05
2.68039511866e-05
1.73746136625e-05
9.38042876442e-06
3.0784815408e-06
-1.46998172568e-06
-4.3279478632e-06
-5.64298443351e-06
-5.59655723009e-06
-4.43473481937e-06
-2.45129831455e-06
-8.80252173374e-08
2.20524589167e-06
3.9974088395e-06
4.96697384733e-06
5.11802340952e-06
4.59464104097e-06
3.8438242882e-06
2.80642757389e-06
6.27902250017e-05
6.04283156918e-05
5.40812643521e-05
4.59749737729e-05
3.69324452549e-05
2.78505319784e-05
1.93780090285e-05
1.18991647469e-05
5.66787775824e-06
7.8801303971e-07
-2.71944304586e-06
-4.92901040161e-06
-5.95549795435e-06
-6.03295893598e-06
-5.40927521797e-06
-4.44359534413e-06
-3.41125519299e-06
-2.49259733209e-06
-1.75031777871e-06
-1.21319180835e-06
-8.41263954499e-07
-5.61051820114e-07
-4.55396957477e-07
6.99904128396e-05
6.75180003782e-05
6.08067152825e-05
5.21631729953e-05
4.23474202762e-05
3.23345861943e-05
2.28216308642e-05
1.43167922033e-05
7.16804265721e-06
1.55945781444e-06
-2.43999625127e-06
-4.89551098326e-06
-5.95243091084e-06
-5.89643559579e-06
-5.03968385601e-06
-3.77327273782e-06
-2.4030878194e-06
-1.16385513138e-06
-1.93744881472e-07
4.90555294164e-07
8.60355839905e-07
1.14155091069e-06
1.17897002383e-06
7.58970415973e-05
7.33242509341e-05
6.63019818603e-05
5.72484955228e-05
4.68924906727e-05
3.62913699519e-05
2.61581726591e-05
1.70663136032e-05
9.3819464837e-06
3.29556496581e-06
-1.14870863399e-06
-4.06388130614e-06
-5.65467280467e-06
-6.25374173069e-06
-6.17763112132e-06
-5.7544025367e-06
-5.1693145906e-06
-4.50377569905e-06
-3.7984575556e-06
-3.0755716125e-06
-2.44667512561e-06
-1.83350471161e-06
-1.3609267171e-06
8.20155958081e-05
7.93631147644e-05
7.20966193057e-05
6.27043518762e-05
5.18768047186e-05
4.07342522522e-05
3.00069764307e-05
2.03385368422e-05
1.21233472328e-05
5.57232647225e-06
7.18687260814e-07
-2.5788806397e-06
-4.5602987484e-06
-5.57037719773e-06
-5.90530908084e-06
-5.81826702728e-06
-5.41781787433e-06
-4.77447042613e-06
-3.98749762098e-06
-3.14449334837e-06
-2.42768169301e-06
-1.7866559574e-06
-1.31914634949e-06
8.85093268153e-05
8.57718091538e-05
7.82703809818e-05
6.85536538185e-05
5.72868389099e-05
4.56523960111e-05
3.44009513356e-05
2.42330061155e-05
1.55544396421e-05
8.57130498844e-06
3.27944894707e-06
-5.10622612637e-07
-3.08161679641e-06
-4.77996491099e-06
-5.85215343563e-06
-6.44607030154e-06
-6.5792426085e-06
-6.28481143394e-06
-5.69729013478e-06
-4.97435689795e-06
-4.28916155215e-06
-3.64771722161e-06
-3.08114363179e-06
9.54226588874e-05
9.26054215142e-05
8.49018733788e-05
7.49056284803e-05
6.3261954665e-05
5.12061735662e-05
3.95027159357e-05
2.88892417757e-05
1.97729439151e-05
1.23469546907e-05
6.57164355289e-06
2.22368726099e-06
-9.94159336187e-07
-3.39014013662e-06
-5.12310384693e-06
-6.23140340394e-06
-6.67816311761e-06
-6.53626807434e-06
-6.01826695856e-06
-5.36711513632e-06
-4.7445726068e-06
-4.20102128373e-06
-3.72277622773e-06
0.00010294886988
0.000100059839951
9.21897324133e-05
8.19591959953e-05
6.99944735061e-05
5.75726148782e-05
4.54648818504e-05
3.44288082488e-05
2.48655969699e-05
1.69493564499e-05
1.06055961169e-05
5.58612464374e-06
1.59873229677e-06
-1.60137665262e-06
-4.06891990679e-06
-5.74788077756e-06
-6.58395060782e-06
-6.72155783832e-06
-6.43424186819e-06
-6.01315991844e-06
-5.58512624593e-06
-5.21197557646e-06
-4.83099915982e-06
0.000111307631641
0.000108353638552
0.000100346659565
8.99172650861e-05
7.7671749068e-05
6.49171677196e-05
5.24247300291e-05
4.09580616179e-05
3.09077158818e-05
2.24275640903e-05
1.54159267822e-05
9.61832733992e-06
4.77774437968e-06
7.42688598621e-07
-2.42844294007e-06
-4.61357308268e-06
-5.78551703256e-06
-6.18084754933e-06
-6.13569136476e-06
-5.96604309067e-06
-5.7639372244e-06
-5.61308934266e-06
-5.4200941122e-06
0.00012072294453
0.000117707834079
0.000109583684662
9.89761997516e-05
8.6470405904e-05
7.33920469429e-05
6.05062577961e-05
4.85730151922e-05
3.79692212391e-05
2.88299677322e-05
2.10369914839e-05
1.43506113091e-05
8.57767167872e-06
3.6787762383e-06
-1.846806299e-07
-2.8661329452e-06
-4.4033024551e-06
-5.13079544362e-06
-5.42432189832e-06
-5.6002677411e-06
-5.70806810174e-06
-5.83961650591e-06
-5.87440536037e-06
0.000131411212578
0.000128334928377
0.000120101625271
0.000109320641059
9.65551632817e-05
8.31393465432e-05
6.98271294368e-05
5.73682391405e-05
4.61243507743e-05
3.62158480129e-05
2.75222735127e-05
1.98433551759e-05
1.30773212277e-05
7.30634087631e-06
2.77273943539e-06
-3.94574271922e-07
-2.32335264627e-06
-3.43654301105e-06
-4.12656208937e-06
-4.69417227578e-06
-5.1513377457e-06
-5.60474632039e-06
-5.91992011323e-06
0.000143578085272
0.000140436782431
0.000132091473461
0.000121127008015
0.000108085038846
9.42991446209e-05
8.05075185326e-05
6.74452464864e-05
5.54585344616e-05
4.46597944119e-05
3.49443321284e-05
2.61773611783e-05
1.83708471013e-05
1.17259946819e-05
6.53430879538e-06
2.86843464892e-06
4.97697328683e-07
-1.07245477921e-06
-2.23053621085e-06
-3.25106361743e-06
-4.11270639233e-06
-4.9350419431e-06
-5.57354769626e-06
0.000157422452276
0.000154209336188
0.000145740377775
0.000134570767386
0.000121221549307
0.000107017872324
9.26779543988e-05
7.89193036326e-05
6.60741152387e-05
5.42565460364e-05
4.33985285326e-05
3.34560961619e-05
2.45695759986e-05
1.70454381987e-05
1.11884794478e-05
6.98581879988e-06
4.10479265156e-06
2.00223280444e-06
3.11381882057e-07
-1.21057360047e-06
-2.51712253885e-06
-3.74514274881e-06
-4.74684634355e-06
0.00017314296565
0.000169849230133
0.000161238757983
0.000149833846535
0.000136136056199
0.000121455075714
0.000106485249489
9.19247254387e-05
7.80951963861e-05
6.51253278647e-05
5.30065378825e-05
4.18083366185e-05
3.18053389492e-05
2.33871135151e-05
1.68369285802e-05
1.20383444937e-05
8.56742099131e-06
5.85504312767e-06
3.56752229891e-06
1.49384982251e-06
-3.0260002859e-07
-1.97837539417e-06
-3.38408585776e-06
0.000190944323322
0.000187560166296
0.000178786492825
0.000167110562643
0.000153015271962
0.000137788518259
0.000122097109852
0.000106619216922
9.16717415294e-05
7.74133047798e-05
6.39181378119e-05
5.13870520535e-05
4.02259759085e-05
3.08800233597e-05
2.35809156948e-05
1.81021353001e-05
1.39465353186e-05
1.05406502371e-05
7.59103090786e-06
4.91595915264e-06
2.58667705566e-06
4.22728135163e-07
-1.42583166962e-06
0.000211042484352
0.000207557907288
0.000198597672806
0.000186611976233
0.000172065441802
0.000156217996391
0.000139705867014
0.000123187664485
0.000106983544583
9.12993477868e-05
7.63142252254e-05
6.23722914952e-05
5.00002850004e-05
3.9669885382e-05
3.15392242101e-05
2.52756110513e-05
2.03303704893e-05
1.61435159498e-05
1.24640380363e-05
9.13431244953e-06
6.22460242994e-06
3.52647475665e-06
1.19308560897e-06
0.00023366866867
0.000230074231013
0.000220904203161
0.000208569246752
0.000193515371848
0.000176968529786
0.000159531867666
0.000141846001497
0.000124244176277
0.000106997503735
9.04093622012e-05
7.49726834783e-05
6.13188858551e-05
4.99191858125e-05
4.08452604006e-05
3.36705359132e-05
2.78176873962e-05
2.27541761433e-05
1.82704002327e-05
1.42264948408e-05
1.06836982923e-05
7.40058408155e-06
4.53843517789e-06
0.000259072480276
0.000255359875609
0.000245958595315
0.000233236226222
0.000217619154455
0.000200293285843
0.000181826817879
0.000162844911983
0.000143704963875
0.000124760766994
0.000106455170226
8.9429148602e-05
7.43996624806e-05
6.18152303105e-05
5.1657752465e-05
4.34253611274e-05
3.6534132505e-05
3.04887141738e-05
2.51172309618e-05
2.02904836897e-05
1.60530544235e-05
1.21255523027e-05
8.68550228006e-06
0.000287524469968
0.000283687056935
0.00027403631384
0.000260891734115
0.000244658531756
0.00022647629271
0.000206876989523
0.000186473552276
0.000165658870174
0.000144884898873
0.000124744015693
0.00010601916415
8.9492926918e-05
7.55756611852e-05
6.41652386548e-05
5.47071974779e-05
4.66311128093e-05
3.94849746499e-05
3.31293304043e-05
2.74384633485e-05
2.24337400141e-05
1.77922383955e-05
1.37196834658e-05
0.000319318219908
0.000315351596555
0.000305437766656
0.000291841612807
0.000274945086858
0.000255835010648
0.00023500630823
0.000213063098954
0.000190444379996
0.000167712350958
0.000145613535551
0.00012506224266
0.000106888504661
9.14568238386e-05
7.85946831456e-05
6.77202217503e-05
5.82942773235e-05
4.9911502856e-05
4.24585823566e-05
3.58064421562e-05
2.99471921608e-05
2.4508114393e-05
1.97389006189e-05
0.000354772121
0.000350674586571
0.000340490026701
0.000326420458805
0.000308822220404
0.000288722714458
0.000266579208301
0.000242990087372
0.000218449109525
0.000193636498807
0.000169451608599
0.000146926566458
0.000126923775724
0.000109762264856
9.52194270667e-05
8.27124913485e-05
7.1749077506e-05
6.19718441612e-05
5.32874930741e-05
4.55573353975e-05
3.87392615266e-05
3.2403670275e-05
2.68663029601e-05
0.000394230754864
0.000390003867778
0.000379548220963
0.00036499308203
0.000346666749238
0.000325530368855
0.000302002963963
0.000276679164472
0.00025011327898
0.000223105892701
0.000196702150788
0.000172036464392
0.000149992785055
0.000130852597749
0.000114368860068
9.99849094114e-05
8.72691502991e-05
7.59127196943e-05
6.58366741391e-05
5.6887182609e-05
4.89834808377e-05
4.16315831444e-05
3.5238600276e-05
0.000438065839944
0.000433714931887
0.000422996496127
0.000407955552873
0.00038889015741
0.00036668821258
0.000341729594084
0.000314605554195
0.000285932744418
0.000256628528632
0.000227871307516
0.000200880976536
0.000176556591214
0.00015515666496
0.000136439341077
0.00011990157418
0.000105185858047
9.20327142921e-05
8.03733748853e-05
7.00344915003e-05
6.08927714438e-05
5.23814107964e-05
4.50332693163e-05
0.000486676828814
0.000482211588633
0.000471248629992
0.000455735864307
0.000435939306954
0.000412666630382
0.000386257094306
0.000357296711627
0.000326461770328
0.000294776313467
0.000263534168653
0.00023402311308
0.00020715468554
0.000183184147318
0.000161907234769
0.000142902394145
0.000125900290186
0.000110693313673
9.72209361407e-05
8.52872494761e-05
7.4723423495e-05
6.48800073577e-05
5.64581077924e-05
0.000540491077118
0.000535926112434
0.000524748194266
0.000508794086954
0.000488296648427
0.000463976377205
0.000436129845184
0.000405333229764
0.000372314789729
0.00033818877273
0.000304341444235
0.000272109698471
0.000242417581831
0.000215539935425
0.000191343995084
0.00016951849193
0.000149898175096
0.00013233304162
0.000116772108413
0.000102995871202
9.078781477e-05
7.94048889929e-05
6.97697601026e-05
0.000599963671448
0.0005953190323
0.000583968303772
0.00056762203053
0.000546479818695
0.00052116814004
0.000491938118103
0.000459348864069
0.000424167763413
0.000387576449157
0.00035102582774
0.000315881315373
0.000283080119516
0.000252940136306
0.000225434169124
0.000200390880082
0.000177768530193
0.000157485123054
0.000139505121524
0.0001235872503
0.000109466481263
9.62941762737e-05
8.52804694205e-05
0.000665576882511
0.00066087863388
0.000649410964343
0.000632742448715
0.000611040518606
0.000584831174592
0.000554316627358
0.000520029127301
0.000482757701093
0.000443722810132
0.000404407295719
0.000366181703157
0.000329995160428
0.000296229839932
0.000264996192982
0.000236293359649
0.000210226926811
0.000186799898984
0.000166004422454
0.000147583363514
0.000131224577217
0.000115960245239
0.000103371903606
0.000737839291332
0.000733119974711
0.000721605947547
0.000704707603063
0.000682562764041
0.000655590988117
0.000623941783488
0.00058810864607
0.000548880793076
0.000507484285663
0.000465396508162
0.000423965679147
0.000384146870829
0.000346401846627
0.00031100625074
0.000278159861637
0.000248144586976
0.000221073638613
0.000196987629124
0.000175625620386
0.000156633389452
0.000138909774932
0.000124512627735
0.000817284631239
0.000812583630022
0.000801109211125
0.000784097339647
0.000761660342505
0.000734106144364
0.000701527819274
0.00066436682323
0.00062338843918
0.000579787551487
0.000534995077942
0.000490304188361
0.000446662022341
0.000404615531124
0.000364624564554
0.000327116989638
0.000292584517638
0.000261285332499
0.000233340611658
0.000208506714444
0.000186398421647
0.000165767360158
0.000149280326468
0.00090447026696
0.000899834002666
0.000888500913334
0.000871516496318
0.000848973449592
0.00082106391892
0.000787821311633
0.00074962141116
0.000707180348172
0.000661623534825
0.000614291628153
0.000566384650483
0.000518817641023
0.000472213740977
0.000427222924372
0.000384521244769
0.00034484558023
0.000308643692733
0.000276163456647
0.000247212836712
0.000221396670213
0.000197307795588
0.000178391013151
0.000999975423611
0.000995457398631
0.000984382908428
0.000967591797234
0.000945164717677
0.000917175052109
0.000883594511151
0.000844720244686
0.000801194956921
0.000754036965873
0.000704452316313
0.000653504817592
0.000602041481216
0.000550734880335
0.000500410846598
0.00045199979786
0.00040651536915
0.000364646908793
0.000326831298025
0.000292980717632
0.000262727259724
0.000234499654653
0.000212738369555
0.00110439921104
0.00110005962983
0.00108937584537
0.00107296810711
0.00105091432351
0.00102316754078
0.000989637159591
0.000950530946056
0.000906396562868
0.000858111180378
0.000806704242677
0.000753057636075
0.000697902989259
0.000641914906282
0.000586055517033
0.000531491489937
0.000479530766597
0.000431157256799
0.000387074519267
0.000347375291085
0.000311781170012
0.000278565029475
0.000253447170962
0.00121835842106
0.00121426355327
0.00120411587818
0.00118830431052
0.00116691469452
0.0011397796693
0.00110674759549
0.00106792897805
0.00102375969141
0.000974948160547
0.000922311245404
0.000866504737132
0.000808089502925
0.00074767466981
0.000686288300813
0.000625280793656
0.000566242733157
0.000510491516252
0.000459083996248
0.000412396679394
0.000370339473648
0.000331063825342
0.000301948314245
0.00134248544418
0.00133870624359
0.00132925099228
0.00131426868802
0.00129386467052
0.00126775246486
0.00123572262396
0.00119778433213
0.00115425100898
0.00110564401143
0.00105254182495
0.000995337348058
0.000934364054956
0.00087008334026
0.000803487635267
0.000736013909091
0.000669474782853
0.00060552358832
0.000545646003502
0.00049062757148
0.000440713718945
0.000394014744415
0.000360083979331
0.00147742641525
0.00147403636788
0.00146543727169
0.00145153409449
0.00143246337234
0.00140782200106
0.00137734753639
0.00134094784016
0.00129881019393
0.00125126161561
0.00119863059695
0.00114102461134
0.00107850207178
0.00101129125414
0.000940223701946
0.000866677733029
0.000792558861804
0.000719787838534
0.000650307438718
0.00058543597811
0.000525952076259
0.000470078437274
0.000430268778018
0.00162384002601
0.00162091157495
0.00161333486176
0.00160077287887
0.00158340396638
0.00156071151832
0.00153238601024
0.00149823758306
0.00145833052852
0.00141280203229
0.00136173545116
0.00130495117651
0.00124220614589
0.00117342495605
0.00109914852692
0.00102051400313
0.000939311547199
0.000857552271327
0.000777556444973
0.00070123973228
0.000630136301879
0.000562829315186
0.000515715297524
0.00178239770639
0.00177999646394
0.00177360427779
0.00176265229402
0.00174736809458
0.0017271248812
0.0017015718654
0.00167042805333
0.00163364337595
0.00159118023635
0.00154289837337
0.00148835397704
0.00142700872607
0.00135844992042
0.00128282543824
0.00120084437845
0.00111390945813
0.00102381247666
0.000932987915121
0.000843846803264
0.000758832627298
0.000677220293483
0.000620867531097
0.00195378617991
0.00195196085906
0.00194690151761
0.001937827657
0.00192501724518
0.00190773589225
0.00188559621324
0.00185823411562
0.0018254971535
0.00178719560017
0.0017430003179
0.00169224961655
0.00163415430484
0.00156798732587
0.00149346801072
0.0014107449756
0.00132055728523
0.00122405982711
0.00112329630565
0.00102075019049
0.000919644636269
0.00082021040339
0.000751872936007
0.00213871372512
0.00213748194983
0.00213388074076
0.00212694853076
0.00211700329555
0.0021032040579
0.00208512848894
0.00206233791687
0.00203458998999
0.00200156881829
0.00196279770694
0.00191745913571
0.00186459092038
0.00180323789095
0.00173275550492
0.00165272785625
0.00156306451458
0.00146387860514
0.00135611926157
0.00124147042379
0.00112317865728
0.00100223350046
0.000918414579246
0.00233792721565
0.00233723239285
0.00233515421314
0.00233059164634
0.0023238724134
0.0023140476942
0.0023006571887
0.00228319553207
0.00226134062677
0.00223467515116
0.00220261424829
0.00216424911901
0.00211853804672
0.00206443187994
0.00200109063826
0.00192771269576
0.00184346584047
0.00174726925684
0.00163833786723
0.00151632025472
0.00138273125754
0.00123767355853
0.0011335199124
0.00255221578868
0.00255196179342
0.00255150616636
0.00254962834106
0.00254659850339
0.00254135343812
0.00253338427024
0.00252212522696
0.00250717910694
0.00248804608395
0.00246406118322
0.00243427423834
0.00239764398134
0.00235316510179
0.00230002576882
0.00223737869828
0.00216407481162
0.00207822676089
0.001977315668
0.00185803632871
0.00171788473585
0.0015521217847
0.00142826797514
0.0027826216126
0.00278202642585
0.00278254691875
0.00278293462839
0.00278328928471
0.002782438959
0.0027798112219
0.00277479625674
0.00276692619582
0.00275564149615
0.00274021934501
0.00271970538688
0.00269311225225
0.00265957969191
0.0026185183076
0.00256940595477
0.00251142407478
0.00244285838494
0.002360701528
0.0022593363326
0.00213149104525
0.00196022790919
0.00182297155675
0.00302917430167
0.0030304203276
0.003035358528
0.00304198335766
0.00304993649138
0.00305784280204
0.00306500718898
0.00307074126704
0.00307446328861
0.00307552148251
0.00307308823176
0.00306615356635
0.00305372434264
0.00303503870737
0.00300974627635
0.00297779899847
0.00293920661761
0.00289343653048
0.00283945820138
0.00277219872692
0.00268899836783
0.00255061719213
0.00252641560314
0.00328487308684
0.00328943171075
0.00330111649055
0.00331681048056
0.00333556984242
0.0033557237316
0.00337639160603
0.00339672387622
0.00341597246734
0.00343331979298
0.00344775895951
0.00345812019305
0.00346326903355
0.00346236024552
0.00345506876147
0.00344155352605
0.0034225061213
0.00339837042748
0.00337157375338
0.00333744452746
0.00331558535004
0.00322139772265
0.00349634232225
0.00354422869395
0.00354497879948
0.00355362186997
0.00356741162454
0.00358552193961
0.00360617508022
0.00362850527358
0.00365162860135
0.00367479726106
0.00369718565616
0.00371779330158
0.00373546935793
0.00374910049004
0.00375784879225
0.00376139392711
0.00375985445658
0.00375419114243
0.00374453808422
0.00373651209225
0.00371925671857
0.00374539726158
0.00365174673425
0.00416174167367
0.00382118606535
0.00381640401793
0.00381923136274
0.00382818747062
0.00384277119406
0.00386117926496
0.00388254220775
0.00390593801581
0.00393059333828
0.00395565883218
0.00398012176288
0.00400283654631
0.00402270119434
0.0040388658108
0.00405099434693
0.00405900480519
0.00406404714181
0.00406478040168
0.00407052817513
0.00405683431518
0.00411279746845
0.00398352110506
0.00454271535477
0.00412618596147
0.00411912172081
0.00411985025107
0.00412778902864
0.00414273287652
0.00416287322446
0.0041873404798
0.00421517322297
0.00424555737413
0.0042775994275
0.00431024506997
0.00434231546205
0.00437267683537
0.00440040508033
0.00442510957896
0.00444633425491
0.00446553802476
0.00447890308601
0.00450097231715
0.00448903364691
0.00457122054559
0.00441063671587
0.00497740122114
0.00445749919891
0.00444929797595
0.00444968986812
0.00445857401769
0.00447593880108
0.00449994450946
0.00452971252594
0.00456423227979
0.00460263722175
0.00464397511541
0.0046871334298
0.00473087802357
0.00477402412253
0.00481553561599
0.00485498302623
0.00489139773208
0.00492687077531
0.00495428537351
0.00499528263344
0.00498681523095
0.00509640114251
0.00491895156438
0.00550378360913
0.00481451753103
0.00480532072152
0.00480599479397
0.00481665713119
0.00483740389313
0.00486632759294
0.00490252756026
0.00494493506017
0.00499262495259
0.00504458065961
0.00509962749811
0.00515646903523
0.00521387185722
0.00527066802442
0.00532644949931
0.00537960479846
0.00543328272897
0.00547634546524
0.00553910897088
0.00553773120487
0.00567704222658
0.00550203393345
0.00611216465791
0.0051978436336
0.00518761701755
0.0051889147885
0.00520190495308
0.00522673577143
0.00526139660656
0.00530495203316
0.00535626791066
0.00541435832361
0.0054781420672
0.0055463852882
0.00561772935748
0.00569090651516
0.00576460094817
0.00583851272086
0.00591024397477
0.00598444986008
0.00604534597574
0.00613300028567
0.00614330622034
0.00631691386047
0.00616578432505
0.00679859672846
0.00560843938342
0.00559716518592
0.0055993856547
0.00561519996791
0.00564477768853
0.00568597329925
0.00573780580157
0.00579906975099
0.00586871866403
0.00594560923969
0.0060284556987
0.00611584048033
0.00620648369977
0.00629890349978
0.00639301189676
0.00648546623029
0.00658285691907
0.00666423986945
0.00678003266694
0.0068067166244
0.00701231814242
0.00688591941571
0.00758891107398
0.00604735860065
0.00603506793141
0.00603852456811
0.00605766305421
0.00609266224114
0.00614121377771
0.00620228299567
0.00627458837675
0.00635702495651
0.00644839181859
0.00654736182196
0.00665246346307
0.00676243386806
0.00687560340975
0.00699221297577
0.00710780902796
0.00723131000655
0.00733621931454
0.00748359329054
0.0075318839522
0.00778475298148
0.00769551288204
0.00845928586568
0.00651567972568
0.00650246025475
0.00650750594923
0.00653049937523
0.00657163061715
0.00662840390555
0.00669972582637
0.00678423532918
0.00688077283507
0.00698808602715
0.00710481995179
0.00722945521534
0.00736078196292
0.00749691737769
0.0076385592065
0.00777997627438
0.00793277103844
0.00806459080832
0.00824727190002
0.0083215560021
0.0086142916839
0.00853019720262
0.00945051617782
0.00701447190022
0.00700046827524
0.00700750872397
0.00703493433116
0.00708295902814
0.00714887742151
0.00723153562262
0.00732949098415
0.00744153511118
0.00756637189806
0.00770263522713
0.00784876450757
0.00800364577503
0.00816515443034
0.00833458343391
0.00850476027404
0.00869030495778
0.00885274318762
0.00907489668725
0.00918025184183
0.00953350809391
0.00948174501696
0.0105228470352
0.0075447690399
0.00753018007413
0.00753968032063
0.00757217029309
0.00762790883846
0.00770396031567
0.00779911193717
0.00791183881256
0.00804089158851
0.00818493928568
0.00834262436956
0.0085123521942
0.00869315439445
0.00888263314187
0.00908282567798
0.00928495691687
0.00950700314729
0.00970409234037
0.00997051518243
0.0101113613457
0.0105222000659
0.0104583008876
0.0117238110874
0.00810754917416
0.00809262418238
0.00810511157715
0.00814335729501
0.00820769352686
0.00829493425022
0.00840381284547
0.00853272275003
0.00868038362069
0.00884543980851
0.00902656527524
0.0092221384898
0.00943139343417
0.00965162400371
0.00988577326893
0.0101232962509
0.0103858954583
0.0106219252332
0.0109380387892
0.0111193687756
0.0116064085855
0.0115749237334
0.0130162441851
0.00870371694805
0.00868875217134
0.00870481747211
0.00874957142628
0.00882345474588
0.00892301072622
0.00904692718018
0.00919351755442
0.0093614826817
0.00954945350372
0.00975616173628
0.00997996561387
0.0102203656195
0.0104743073866
0.0107458168509
0.0110223926729
0.0113298977094
0.0116093633405
0.0119812195119
0.0122075895226
0.0127804838801
0.0127737988273
0.0144304624537
0.00933408746209
0.00931942286797
0.00933972048347
0.009391796611
0.00947624272203
0.00958930989714
0.00972965186907
0.00989550466625
0.0100855646258
0.0102984614055
0.0105330141628
0.0107875666235
0.0110619576603
0.0113527373774
0.0116652125796
0.0119847035157
0.0123417657694
0.0126693210275
0.0131035624995
0.0133797754895
0.0140506564678
0.0140798685086
0.0159786166612
0.00999937122833
0.00998538738486
0.0100106349075
0.0100709079536
0.0101669984238
0.0102948414726
0.0104530716992
0.0106398505905
0.0108538865256
0.0110938205985
0.0113585927713
0.0116465363135
0.0119579089978
0.0122888077269
0.0126460465478
0.0130124921345
0.0134240506407
0.0138045048675
0.0143080766115
0.0146413556786
0.0154196426088
0.0154882155484
0.0176702836229
0.0107001595497
0.0106872744809
0.0107182518977
0.010787655993
0.0108965367613
0.0110404869069
0.0112181402681
0.0114275865976
0.0116675649031
0.0119367406044
0.0122342118384
0.0125583033164
0.0129097815404
0.0132842184378
0.0136901995418
0.0141077948156
0.0145790403367
0.0150174378211
0.0155963279378
0.015995651914
0.0168940660642
0.0170023935336
0.0195131508885
0.0114369102669
0.0114255763679
0.0114631250403
0.0115426516606
0.0116655308977
0.0118269826655
0.0120256622261
0.0122595898424
0.0125275553269
0.0128282609776
0.0131610050553
0.0135241034677
0.0139189302442
0.0143404423548
0.0147993108458
0.0152723988015
0.0158087306679
0.0163108837639
0.0169696349731
0.0174366324622
0.0184855661403
0.0186292142373
0.0215153446541
0.012209933135
0.0122006341896
0.0122456562767
0.0123363521925
0.0124744975656
0.0126549046754
0.0128762770867
0.013136566105
0.0134346337395
0.0137692305659
0.0141399019208
0.0145449554775
0.0149864757873
0.0154586903714
0.015974725979
0.0165078019522
0.0171143956632
0.0176881398402
0.0184289421518
0.0189702433645
0.0201888351808
0.020375977057
0.0236863326193
0.0130193744956
0.0130126235263
0.0130660824063
0.0131690481558
0.0133237840143
0.0135246544341
0.0137704447411
0.0140590351682
0.0143893811376
0.0147602898548
0.0151716039768
0.0156216367704
0.01611327708
0.0166398803344
0.0172175065331
0.0178153454819
0.0184964206649
0.01914167071
0.0199708797202
0.0206109328751
0.0220043372742
0.0222483288619
0.0260359934869
0.0138651996144
0.0138615389722
0.0139244621296
0.0140408521781
0.0142135569092
0.0144364466794
0.0147084323132
0.0150273175623
0.0153921694762
0.0158018548138
0.0162565660571
0.0167547036988
0.0172999649737
0.0178845668715
0.0185277196263
0.0191965367903
0.0199446553313
0.0206741808752
0.0216137395014
0.022350580276
0.0239327625325
0.024250942301
0.0285738225534
0.0147471695609
0.0147471758894
0.0148206626325
0.0149516886031
0.0151437930676
0.0153903012651
0.0156903155007
0.016041546643
0.0164431863057
0.0168941404927
0.0173948874515
0.0179441138646
0.0185464855379
0.0191933468407
0.0198952489318
0.0206346477701
0.0214786055769
0.0223004641978
0.023346444857
0.0241918264223
0.0259744283769
0.026388351263
0.0313092177976
0.0156648099153
0.0156691119923
0.0157543516259
0.0159012970973
0.0161142847739
0.0163860140792
0.0167158566871
0.0171014693453
0.0175421430104
0.0180369010254
0.0185854571635
0.0191831134955
0.0198434258409
0.0205532736218
0.0213369726048
0.0221563450252
0.0230898171776
0.0240097724329
0.0251680870915
0.0261357888808
0.0281284661398
0.0286648344909
0.0342515766449
0.0166173325283
0.0166266438885
0.0167249298966
0.0168891287576
0.017124542529
0.0174228864453
0.0177827326045
0.0182033307019
0.018683616071
0.0192227677137
0.0198220731745
0.0204797239892
0.0212032915822
0.0219828901588
0.0228443814267
0.0237488754292
0.0247758222142
0.0258014942117
0.0270767024792
0.0281823511598
0.0303925715323
0.0310841777793
0.0374101217071
0.0176038146633
0.017618714563
0.017730709473
0.0179124201338
0.0181705963837
0.018496434345
0.0188897277706
0.019348026751
0.019871208141
0.0204585832169
0.0211119823912
0.021829590085
0.0226197035356
0.0234727741397
0.024415557363
0.0254106712689
0.0265348258079
0.0276746450504
0.0290696029931
0.0303309316764
0.0327624952433
0.0336494756505
0.0407937297073
0.0186236646384
0.0186442126897
0.0187710142191
0.0189718156853
0.0192549120557
0.0196106142823
0.0200389782915
0.0205373840495
0.0211059874214
0.0217442274834
0.0224543041491
0.0232347586166
0.0240938740671
0.0250238593069
0.0260487804201
0.0271396945984
0.02835823087
0.0296209354958
0.0311302226999
0.0325785894656
0.0352327152523
0.0363634629616
0.0444110674148
0.0196762992302
0.019703820938
0.0198467177281
0.0200679679981
0.0203771791089
0.02076400839
0.0212287604925
0.0217687677991
0.0223844224943
0.0230753937292
0.0238441691463
0.0246900380957
0.0256207945763
0.0266317495857
0.0277418444778
0.0289359580872
0.0302504348115
0.0316549051904
0.033264644836
0.0349134896476
0.0377795510399
0.0392294673261
0.0482712283986
0.0207612964416
0.0207956579729
0.0209552281167
0.0211977391837
0.0215341239214
0.0219533195352
0.0224558864668
0.0230391210423
0.0237036201065
0.0244493116104
0.0252789002454
0.0261925927603
0.0271974445704
0.0282924169114
0.0294904647096
0.0307917620305
0.0322054513563
0.0337579275274
0.0354726926114
0.0373741735748
0.0403780052302
0.0422482927206
0.0523836306954
0.0218772957774
0.0219182485548
0.0220949803117
0.0223594642246
0.0227239781939