/*--------------------------------*- C++ -*----------------------------------*\
| =========                 |                                                 |
| \\      /  F ield         | OpenFOAM: The Open Source CFD Toolbox           |
|  \\    /   O peration     | Version:  2112                                  |
|   \\  /    A nd           | Website:  www.openfoam.com                      |
|    \\/     M anipulation  |                                                 |
\*---------------------------------------------------------------------------*/
FoamFile
{
    version     2.0;
    format      ascii;
    arch        "LSB;label=64;scalar=64";
    class       volVectorField;
    location    "0.0051";
    object      U.gas;
}
// * * * * * * * * * * * * * * * * * * * * * * * * * * * * * * * * * * * * * //

dimensions      [0 1 -1 0 0 0 0];

internalField   nonuniform List<vector> 
5589
(
(-2.37709473068 0 120.301243117)
(-5.3183474678 0 118.899351871)
(-8.28098602637 0 115.264830627)
(-10.8434159445 0 110.366028815)
(-12.9996584566 0 104.420607315)
(-14.7022277918 0 97.824431603)
(-15.9614426594 0 90.8073296952)
(-16.8077312681 0 83.6087009406)
(-17.2870217758 0 76.3995950336)
(-17.445337974 0 69.3222814016)
(-17.3288774905 0 62.475527692)
(-16.9714011954 0 55.9238553773)
(-16.4029554059 0 49.6979750745)
(-15.6097966462 0 43.7923000661)
(-14.5714184024 0 38.1704143741)
(-13.2136880099 0 32.76405713)
(-11.5030625081 0 27.4896541141)
(-9.29035087894 0 22.2415150165)
(-6.63837491112 0 16.9632900988)
(-3.52580185331 0 11.6502911882)
(-0.467201272199 0 6.43002504522)
(2.32418439429 0 1.44319295791)
(3.72182837393 0 -2.97396668898)
(-2.35808366374 0 123.613881933)
(-5.2863872517 0 122.211409316)
(-8.2325683827 0 118.609001114)
(-10.7933568397 0 113.739806666)
(-12.9560276304 0 107.821977316)
(-14.6806562127 0 101.230617451)
(-15.9821145256 0 94.1854229463)
(-16.8877168843 0 86.912735801)
(-17.4383131373 0 79.5797366342)
(-17.6743719304 0 72.3266865509)
(-17.6323222349 0 65.2521992022)
(-17.331253516 0 58.4232365142)
(-16.776413453 0 51.8736580563)
(-15.9315039783 0 45.6063708919)
(-14.7487267492 0 39.5950279116)
(-13.1452897759 0 33.7954722164)
(-11.0731047523 0 28.153019396)
(-8.52403514792 0 22.6564128623)
(-5.68263713993 0 17.3427178611)
(-2.97704356007 0 12.4315131288)
(-1.01551685711 0 8.16693265848)
(-0.484278206795 0 4.9341037955)
(-0.748025597537 0 2.02832890351)
(-2.3699493988 0 126.317550452)
(-5.31736105662 0 124.893468913)
(-8.28107391185 0 121.252609551)
(-10.8689434645 0 116.32962853)
(-13.061643974 0 110.351083728)
(-14.8220062333 0 103.685436784)
(-16.1647845939 0 96.5630499404)
(-17.1141066886 0 89.2165170401)
(-17.7057316074 0 81.8181230482)
(-17.9744814084 0 74.510486915)
(-17.9498127451 0 67.3913732492)
(-17.644965014 0 60.5234626233)
(-17.0572744614 0 53.9283331154)
(-16.152724908 0 47.59366254)
(-14.8922876946 0 41.4763618854)
(-13.2255872645 0 35.5227566982)
(-11.1557541109 0 29.6806004776)
(-8.76452997033 0 23.9650080553)
(-6.32913542573 0 18.4854611166)
(-4.22747609616 0 13.4671834252)
(-2.80181644281 0 9.1110130063)
(-1.80941419041 0 5.28438850002)
(0.0678408915051 0 0.85470812825)
(-2.39187481226 0 128.582828466)
(-5.36922079843 0 127.158499238)
(-8.36317185764 0 123.531250982)
(-10.9882863198 0 118.625102224)
(-13.219066594 0 112.670076988)
(-15.0216713007 0 106.024438821)
(-16.4107784831 0 98.9182653416)
(-17.4084330035 0 91.5790673001)
(-18.0471311224 0 84.1745317012)
(-18.3570515664 0 76.841017969)
(-18.3610698123 0 69.6687874327)
(-18.0650295593 0 62.7127708337)
(-17.4557540068 0 55.9869346933)
(-16.4965423032 0 49.4773190198)
(-15.1487598397 0 43.1470750801)
(-13.3864513808 0 36.9672104395)
(-11.2513697499 0 30.9341002795)
(-8.91749094138 0 25.1446352432)
(-6.69552481969 0 19.7737463918)
(-4.96001354517 0 15.0667634223)
(-3.82971162639 0 11.0847767765)
(-3.14350638611 0 7.72866402467)
(-2.45256565745 0 4.47958015816)
(-2.42441330703 0 130.970270218)
(-5.44418728317 0 129.544830794)
(-8.48291532589 0 125.928351284)
(-11.1585707383 0 121.034376793)
(-13.4399358714 0 115.094070686)
(-15.2954639258 0 108.456009277)
(-16.7386341303 0 101.349958645)
(-17.7886038642 0 94.000169438)
(-18.4739635397 0 86.5724571164)
(-18.8197598948 0 79.200656328)
(-18.8429061062 0 71.9717841948)
(-18.5446318819 0 64.9368387816)
(-17.9088431301 0 58.1054195085)
(-16.9074577613 0 51.4624130389)
(-15.5192664902 0 44.9753338206)
(-13.75892964 0 38.6309946717)
(-11.7197825427 0 32.4575814039)
(-9.6228504621 0 26.5827305002)
(-7.75298152252 0 21.1889400321)
(-6.34299494186 0 16.4466946348)
(-5.33555225716 0 12.3353090515)
(-4.48237894137 0 8.64789043587)
(-3.16905319533 0 4.7977228352)
(-2.46728086561 0 133.398773628)
(-5.54173398633 0 131.971937725)
(-8.63907245596 0 128.365363521)
(-11.3773131059 0 123.48345531)
(-13.7200672507 0 117.558022026)
(-15.6371621763 0 110.929549475)
(-17.1404719141 0 103.826778059)
(-18.2462495415 0 96.4702187329)
(-18.9796304764 0 89.0225540642)
(-19.3614433327 0 81.6134373854)
(-19.4040682226 0 74.32496168)
(-19.1058035396 0 67.2031804324)
(-18.4498164234 0 60.2548385861)
(-17.416527352 0 53.4682156357)
(-15.9993504955 0 46.8241110796)
(-14.2444241676 0 40.3375017826)
(-12.2766284596 0 34.0789219418)
(-10.3372148293 0 28.2117942539)
(-8.66712875013 0 22.9171220036)
(-7.43259218804 0 18.3183276357)
(-6.53364545231 0 14.3412366743)
(-5.82758046649 0 10.803108568)
(-4.98147161566 0 7.3056121113)
(-2.51956847306 0 135.880133183)
(-5.66011889058 0 134.452334872)
(-8.82891494405 0 130.856680472)
(-11.6409850096 0 125.988494638)
(-14.0554658387 0 120.079160417)
(-16.0426589445 0 113.461708769)
(-17.6125847107 0 106.362800465)
(-18.7784462788 0 98.9988972442)
(-19.5620629769 0 91.5293919971)
(-19.9806066697 0 84.080191055)
(-20.0431743187 0 76.7296833143)
(-19.7473879107 0 69.5210491023)
(-19.0797369308 0 62.4612167475)
(-18.0336151522 0 55.5442688163)
(-16.622479982 0 48.765041485)
(-14.9246326775 0 42.1609945417)
(-13.0884236818 0 35.8280962345)
(-11.3505984912 0 29.9341355955)
(-9.89324501398 0 24.6334466042)
(-8.80649000138 0 19.9923503543)
(-7.9450926208 0 15.9142261958)
(-7.18179642114 0 12.2178159939)
(-6.18204928675 0 8.58039406685)
(-2.58062873845 0 138.426240731)
(-5.79806010748 0 136.997610209)
(-9.05038258609 0 133.413229427)
(-11.9468811241 0 128.559344438)
(-14.4429414405 0 122.666084933)
(-16.5084522329 0 116.059697239)
(-18.151446487 0 108.964091953)
(-19.3820638694 0 101.591616459)
(-20.2191284058 0 94.0982979878)
(-20.6769055619 0 86.6064893012)
(-20.7624725556 0 79.1914641603)
(-20.4743881356 0 71.8947646846)
(-19.8040969916 0 64.7257504472)
(-18.7576294867 0 57.6870840165)
(-17.3655238654 0 50.7909995083)
(-15.7287786249 0 44.0988765946)
(-14.0045762424 0 37.7298232372)
(-12.415256603 0 31.8531081738)
(-11.0977899972 0 26.599957604)
(-10.112552342 0 21.9994638258)
(-9.32395226127 0 17.9450636296)
(-8.64893739661 0 14.2623061885)
(-7.85145384254 0 10.7100854594)
(-2.64984551378 0 141.045667712)
(-5.95428325473 0 139.616287341)
(-9.30141835363 0 136.043432618)
(-12.2923236732 0 131.204179783)
(-14.8793645417 0 125.32671207)
(-17.0312142614 0 118.731000248)
(-18.753872762 0 111.637649979)
(-20.0544766708 0 104.25486609)
(-20.9492070025 0 96.7353620042)
(-21.4501202277 0 89.1983858341)
(-21.563448364 0 81.7170470793)
(-21.2902807279 0 74.33277323)
(-20.628854769 0 67.0592369755)
(-19.5987780536 0 59.9087731911)
(-18.247401211 0 52.9100413017)
(-16.6936302828 0 46.1421758647)
(-15.0961071697 0 39.7357212946)
(-13.6560724688 0 33.8483436249)
(-12.4694100633 0 28.5852852337)
(-11.5687983046 0 23.9458954748)
(-10.8150879116 0 19.8245278856)
(-10.1386913317 0 16.0593451034)
(-9.35631967072 0 12.4944172225)
(-2.7266257355 0 143.746995678)
(-6.12754145365 0 142.316932199)
(-9.58002988406 0 138.755784598)
(-12.674781543 0 133.931286438)
(-15.3618376347 0 128.069084899)
(-17.6079562691 0 121.483243018)
(-19.4171111536 0 114.390659464)
(-20.7935288477 0 106.995458805)
(-21.7511041137 0 99.4472058865)
(-22.300296555 0 91.8625903154)
(-22.4474212899 0 84.313530688)
(-22.1970887712 0 76.8427524299)
(-21.554865286 0 69.4698781096)
(-20.5528250506 0 62.2180768968)
(-19.2518330691 0 55.1324069621)
(-17.7818312374 0 48.3072989188)
(-16.2968148483 0 41.8809370588)
(-14.9776737115 0 35.9986037996)
(-13.8933233778 0 30.7451553157)
(-13.065745763 0 26.0982206301)
(-12.3661338882 0 21.9531079292)
(-11.7406336363 0 18.1524135314)
(-11.0750527049 0 14.6168594343)
(-2.81041122319 0 146.538410319)
(-6.3166515605 0 145.107733726)
(-9.88434178668 0 141.558425497)
(-13.0919168985 0 136.748661976)
(-15.8877242259 0 130.901062117)
(-18.236019502 0 124.324028996)
(-20.1387918724 0 117.230479231)
(-21.5974484139 0 109.820582551)
(-22.6239295644 0 102.240992752)
(-23.227625524 0 94.6064441758)
(-23.4157148346 0 86.9886279503)
(-23.1971177366 0 79.4327708803)
(-22.5851357917 0 71.9654657617)
(-21.6235567531 0 64.6207082097)
(-20.3846087321 0 57.4579417687)
(-19.0051394785 0 50.5820448187)
(-17.6316694902 0 44.1327829913)
(-16.4257312834 0 38.2402063443)
(-15.4342243339 0 32.9710871049)
(-14.6689707443 0 28.2875195999)
(-14.0054607649 0 24.0893035836)
(-13.3984271197 0 20.2285135866)
(-12.8056315466 0 16.7152898267)
(-2.9006822661 0 149.427701821)
(-6.52050759229 0 147.996514372)
(-10.2126135011 0 144.459181211)
(-13.5415908936 0 139.664082455)
(-16.4546396757 0 133.830396215)
(-18.9130368086 0 127.261008458)
(-20.9168491132 0 120.164673738)
(-22.4647271869 0 112.737775782)
(-23.5669358996 0 105.124344518)
(-24.2322012759 0 97.4377860448)
(-24.4691114729 0 89.7504935926)
(-24.2912652829 0 82.1112575043)
(-23.7194848716 0 74.5544346887)
(-22.8078057261 0 67.1247857397)
(-21.6370841502 0 59.8946760644)
(-20.3473488391 0 52.9766668219)
(-19.0764686228 0 46.5097957126)
(-17.9696905203 0 40.6098636835)
(-17.0590826202 0 35.3288902411)
(-16.3511758725 0 30.6166416113)
(-15.728400787 0 26.37577292)
(-15.1534625755 0 22.4642571703)
(-14.6612569709 0 18.9832303104)
(-2.99695795683 0 152.422320452)
(-6.73808231601 0 150.990783141)
(-10.5632367499 0 147.465614619)
(-14.021842261 0 142.685144824)
(-17.060409843 0 136.864760415)
(-19.636863452 0 130.301886345)
(-21.7494212844 0 123.200999999)
(-23.3940057857 0 115.754890475)
(-24.5794262049 0 108.105276457)
(-25.3140405687 0 100.364846736)
(-25.6082242218 0 92.6075314202)
(-25.4804049442 0 84.8865084761)
(-24.958573212 0 77.2442707133)
(-24.105715657 0 69.7357378405)
(-23.0093098288 0 62.4441697262)
(-21.8103116935 0 55.4868093413)
(-20.6379011228 0 48.9995246174)
(-19.6231524751 0 43.0843039992)
(-18.7863088774 0 37.7805975998)
(-18.128869075 0 33.0291362951)
(-17.5386657358 0 28.7364978156)
(-16.9850880885 0 24.7686320334)
(-16.5890108358 0 21.3285959521)
(-3.09879116272 0 155.529411669)
(-6.96841527044 0 154.097767956)
(-10.9347118713 0 150.58505528)
(-14.530842403 0 145.819289635)
(-17.7030068244 0 140.011761212)
(-20.4054928549 0 133.454420315)
(-22.6347492119 0 126.347389809)
(-24.3839644069 0 118.880058509)
(-25.6606453488 0 111.192152959)
(-26.4729574466 0 103.396220114)
(-26.8332522603 0 95.5684659278)
(-26.764679463 0 87.7671123434)
(-26.3018024534 0 80.0429716021)
(-25.5151582372 0 72.4604970101)
(-24.4970471045 0 65.1122167876)
(-23.3877575551 0 58.1181862059)
(-22.3083515498 0 51.6101039684)
(-21.3780205347 0 45.6774133222)
(-20.6082692052 0 40.348752958)
(-19.9971362887 0 35.5575811696)
(-19.4383158584 0 31.2136030383)
(-18.9076042319 0 27.1899831209)
(-18.6183192199 0 23.7991327767)
(-3.2057592354 0 158.755845298)
(-7.21059170413 0 157.324441509)
(-11.3256114223 0 153.824621001)
(-15.0668398515 0 149.07381466)
(-18.3804777555 0 143.278942428)
(-21.2169736607 0 136.726411034)
(-23.5710881705 0 129.611926865)
(-25.433242156 0 122.121657266)
(-26.8097269788 0 114.393641449)
(-27.708577897 0 106.540800333)
(-28.1441562494 0 98.6422347142)
(-28.1440621142 0 90.7616817596)
(-27.7487731446 0 82.9582393164)
(-27.0351412978 0 75.3051318435)
(-26.0989768888 0 67.9025759341)
(-25.0790010656 0 60.8718739424)
(-24.0889169707 0 54.3397570178)
(-23.2376328316 0 48.3841541137)
(-22.5296031522 0 43.02426968)
(-21.9599839997 0 38.1881521467)
(-21.4281959374 0 33.7889126806)
(-20.9162547464 0 29.7076263052)
(-20.7388559147 0 26.3765001214)
(-3.31745278287 0 162.108235943)
(-7.46371820603 0 160.677538077)
(-11.7345401306 0 157.191229525)
(-15.6281050001 0 152.455878699)
(-19.0908777436 0 146.673781268)
(-22.0693360775 0 140.125687475)
(-24.5566342852 0 133.002823269)
(-26.5403702188 0 125.488281617)
(-28.0256394481 0 117.718686407)
(-29.020298416 0 109.807774582)
(-29.5406040752 0 101.838043482)
(-29.6181883521 0 93.879076673)
(-29.2987207148 0 85.9981197644)
(-28.6642337555 0 78.2764645885)
(-27.8130275763 0 70.8207525392)
(-26.8817354275 0 63.7525425809)
(-25.9775176503 0 57.1932915568)
(-25.2004059496 0 51.2104953891)
(-24.5493435989 0 45.8150059494)
(-24.0175198763 0 40.9307669085)
(-23.5102755427 0 36.4740615829)
(-23.0157435146 0 32.3338552876)
(-22.9581865554 0 29.0720833678)
(-3.43346452493 0 165.592952677)
(-7.72689934805 0 164.163559997)
(-12.1600974388 0 160.691600183)
(-16.212881361 0 155.972496444)
(-19.8322122006 0 150.203677507)
(-22.960529929 0 143.66008834)
(-25.5894641192 0 136.528395162)
(-27.7037185195 0 128.988717538)
(-29.3071483183 0 121.17648508)
(-30.407280474 0 113.206605169)
(-31.0220273026 0 105.165353018)
(-31.1865314976 0 97.1283645854)
(-30.9509248294 0 89.1708149005)
(-30.4014367669 0 81.3814077098)
(-29.6381193399 0 73.8721510956)
(-28.7952719103 0 66.7641614262)
(-27.9742589004 0 60.17346608)
(-27.2673292175 0 54.1580897665)
(-26.6690716163 0 48.7214914052)
(-26.1714393572 0 43.7847722429)
(-25.68582159 0 39.2674337741)
(-25.2063891648 0 35.0665476116)
(-25.2761588162 0 31.8847105602)
(-3.55337956559 0 169.216119507)
(-7.99921787961 0 167.788775567)
(-12.600845995 0 164.332247643)
(-16.8193457988 0 159.630526595)
(-20.6023896687 0 153.875937413)
(-23.8883730617 0 147.337440486)
(-26.6674826296 0 140.197037724)
(-28.9214465962 0 132.631918064)
(-30.6527753526 0 124.776471087)
(-31.8684235757 0 116.747031911)
(-32.5876078865 0 108.633919067)
(-32.8483786234 0 100.518929011)
(-32.7045980035 0 92.4849177406)
(-32.2458251816 0 84.6274491794)
(-31.573310445 0 77.0630843509)
(-30.8189224716 0 69.9120898387)
(-30.0789052477 0 63.28508823)
(-29.4386882397 0 57.2315510327)
(-28.8895800742 0 51.7484003517)
(-28.4230638739 0 46.7549403958)
(-27.9567222876 0 42.1738077604)
(-27.4906597022 0 37.9102274068)
(-27.6959575555 0 34.8186601069)
(-3.67676764193 0 172.983607762)
(-8.27971928124 0 171.559209492)
(-13.0552868327 0 168.119468874)
(-17.4455772763 0 163.436654019)
(-21.3991835218 0 157.697752375)
(-24.8505072171 0 151.165533377)
(-27.7883756315 0 144.01719754)
(-30.1914555554 0 136.426978073)
(-32.0607559146 0 128.528298416)
(-33.402337268 0 120.439073489)
(-34.23627552 0 112.253817109)
(-34.6028628281 0 104.060511545)
(-34.5589646979 0 95.9494353961)
(-34.1967015532 0 88.0225635758)
(-33.6180994479 0 80.4003954152)
(-32.9525855364 0 73.2021366561)
(-32.2918840244 0 66.533135096)
(-31.7154614592 0 60.4351863544)
(-31.2123205718 0 54.8994942096)
(-30.7741670272 0 49.8445170139)
(-30.3248986799 0 45.1959759711)
(-29.8704385922 0 40.8673038573)
(-30.2197891153 0 37.8765843899)
(-3.80317737468 0 176.901022487)
(-8.56740046198 0 175.480627794)
(-13.5218406339 0 172.0593249)
(-18.0895325481 0 167.397367023)
(-22.2202003178 0 161.676172551)
(-25.8443587397 0 155.152088945)
(-28.9495639621 0 147.997341077)
(-31.5113380537 0 140.383106508)
(-33.5289899584 0 132.441825402)
(-35.007299832 0 124.293032923)
(-35.9666782481 0 116.03547867)
(-36.4489402546 0 107.76328484)
(-36.5132237422 0 99.5739007925)
(-36.2535061592 0 91.5753705228)
(-35.7722410865 0 83.8917024091)
(-35.1964427558 0 76.6410008603)
(-34.6138645931 0 69.9235767813)
(-34.0988184679 0 63.7744181588)
(-33.6389345732 0 58.1798003727)
(-33.2267781346 0 53.0581627401)
(-32.7926719902 0 48.3382163948)
(-32.3482261266 0 43.9416147019)
(-32.8506212578 0 41.0622906468)
(-3.9321322411 0 180.973684392)
(-8.86120185884 0 179.558518467)
(-13.9988338582 0 176.157618271)
(-18.7490269865 0 171.518930117)
(-23.0628527633 0 165.818075243)
(-26.8671022697 0 159.304725824)
(-30.1481579796 0 152.145917548)
(-32.878325503 0 144.509593622)
(-35.0549866516 0 136.527095042)
(-36.6812066692 0 128.319500386)
(-37.7771401535 0 119.989723184)
(-38.3853584016 0 111.63791174)
(-38.5665250163 0 103.368443928)
(-38.4158020495 0 95.2951881043)
(-38.035755055 0 87.5453928617)
(-37.5510263828 0 80.2361620306)
(-37.0459127702 0 73.4631080356)
(-36.5903486143 0 67.2552887032)
(-36.171486534 0 61.5948286375)
(-35.7833182657 0 56.4008826712)
(-35.3626926132 0 51.6050393911)
(-34.9267692135 0 47.13718319)
(-35.5916802524 0 44.3798760546)
(-4.06312789478 0 185.206608313)
(-9.16000209889 0 183.798068588)
(-14.4844884993 0 180.419866631)
(-19.4217190784 0 175.807352218)
(-23.9243359343 0 170.130127551)
(-27.9156264947 0 163.630916941)
(-31.3809120021 0 156.471314624)
(-34.289232265 0 148.815771185)
(-36.6358018435 0 140.794309131)
(-38.4215059608 0 132.529351335)
(-39.6655995714 0 124.127787328)
(-40.4105977791 0 115.695606294)
(-40.7179115362 0 107.343876861)
(-40.6832132465 0 99.1921310009)
(-40.4088613507 0 91.3707316451)
(-40.0171599044 0 83.9960136827)
(-39.5894413716 0 77.1593368344)
(-39.1920221437 0 70.8847333621)
(-38.8124417404 0 65.1509461436)
(-38.4466159285 0 59.878494118)
(-38.0380265274 0 55.0017079993)
(-37.6092424792 0 50.4587110017)
(-38.4466660421 0 47.8340699223)
(-4.19563052898 0 189.604479335)
(-9.46261462424 0 188.204138856)
(-14.9769147181 0 184.851273056)
(-20.105097943 0 180.268350685)
(-24.8016064376 0 174.618743383)
(-28.986502189 0 168.13794006)
(-32.6441794224 0 160.981805915)
(-35.7403976666 0 153.310963727)
(-38.2679688912 0 145.253793267)
(-40.2251218595 0 136.933735974)
(-41.6295290414 0 128.461346645)
(-42.5227923702 0 119.94818832)
(-42.9662438822 0 111.511773148)
(-43.0553583569 0 103.277200792)
(-42.8919332108 0 95.3779481388)
(-42.5959427647 0 87.929937835)
(-42.2462301645 0 81.0208374571)
(-41.9062366126 0 74.6706002378)
(-41.5647239874 0 68.8553562138)
(-41.2199703649 0 63.4975702496)
(-40.8222149832 0 58.5341670876)
(-40.3993156647 0 53.9115372897)
(-41.4198453829 0 51.4302857036)
(-4.32907607559 0 194.171627123)
(-9.76778589172 0 192.781235989)
(-15.4741059299 0 189.456693468)
(-20.7964736669 0 184.9073113)
(-25.6913647424 0 179.290034738)
(-30.0759532613 0 172.832820769)
(-33.933869605 0 165.685489048)
(-37.2276269269 0 158.00442863)
(-39.9474234432 0 149.9159494)
(-42.0883649567 0 141.544055948)
(-43.6658355142 0 133.002525809)
(-44.7196253134 0 124.408130631)
(-45.3100987329 0 115.884547559)
(-45.5317611135 0 107.562388631)
(-45.4854300514 0 99.5783523657)
(-45.2887133752 0 92.0484290991)
(-45.0184173905 0 85.0572791861)
(-44.7358286549 0 78.6217799141)
(-44.4317394346 0 72.7162264806)
(-44.1071743869 0 67.2655603255)
(-43.7192829623 0 62.2091503349)
(-43.301098837 0 57.5017038925)
(-44.5160234611 0 55.1746808566)
(-4.46287013752 0 198.911998888)
(-10.0741950028 0 197.53348334)
(-15.9739362854 0 194.240601451)
(-21.4929707703 0 189.729244454)
(-26.5900414136 0 184.149757422)
(-31.1798319736 0 177.722267759)
(-35.2454080669 0 170.590213401)
(-38.7461325274 0 162.905283047)
(-41.6694233652 0 154.79119257)
(-44.0068304886 0 146.371923745)
(-45.7707403009 0 137.763892486)
(-46.9981982774 0 129.088594232)
(-47.74763944 0 120.47553183)
(-48.1117366708 0 112.060784117)
(-48.1898134358 0 103.984465993)
(-48.0970030517 0 96.3632360451)
(-47.908490162 0 89.2795664162)
(-47.6840944762 0 82.7483347635)
(-47.417423203 0 76.742803699)
(-47.1125929569 0 71.190892042)
(-46.7338671393 0 66.0342727523)
(-46.3193672575 0 61.2360456508)
(-47.7407019372 0 59.0741974676)
(-4.59638865511 0 203.829131323)
(-10.3804548411 0 202.464590102)
(-16.4741607777 0 199.207050851)
(-22.191525388 0 194.738737917)
(-27.4937881794 0 189.203251687)
(-32.2935999065 0 182.812600335)
(-36.5737019225 0 175.703496804)
(-40.2904782218 0 168.022415651)
(-43.428465884 0 159.889868233)
(-45.9752856772 0 151.429099693)
(-47.9396387239 0 142.758428854)
(-49.3548722246 0 134.003445873)
(-50.276453387 0 125.299042705)
(-50.794245092 0 116.786690057)
(-51.0054344712 0 108.610173034)
(-51.0224668718 0 100.887532554)
(-50.9192565121 0 93.7000143744)
(-50.754793256 0 87.0616661034)
(-50.5262605466 0 80.9455669428)
(-50.2411849298 0 75.2831116816)
(-49.8712135884 0 70.018165826)
(-49.4594928405 0 65.1223357349)
(-51.1001369701 0 63.1367914352)
(-4.72897937502 0 208.926122516)
(-10.6851149179 0 207.577820105)
(-16.9724184154 0 204.359637265)
(-22.8888869967 0 199.939907431)
(-28.3984752456 0 194.455378653)
(-33.412316258 0 188.109669286)
(-37.9131130551 0 181.032431101)
(-41.8545286587 0 173.364381916)
(-45.2182051126 0 165.222147018)
(-47.9875488902 0 156.727401243)
(-50.1669405658 0 147.99947361)
(-51.785077824 0 139.167250068)
(-52.8933508114 0 130.370435115)
(-53.5777035629 0 121.755738116)
(-53.9323832369 0 113.470888024)
(-54.0667850288 0 105.63611929)
(-54.0538006511 0 98.3325611059)
(-53.9521503177 0 91.5747170275)
(-53.7633298752 0 85.3364093195)
(-53.4985804958 0 79.5530368173)
(-53.1372861256 0 74.1705934608)
(-52.7275921318 0 69.1693494356)
(-54.6014048196 0 67.3714200474)
(-4.85996418605 0 214.205603632)
(-10.98666608 0 212.875960102)
(-17.4662387516 0 209.70145847)
(-23.5816252152 0 205.336345266)
(-29.299695755 0 199.910453159)
(-34.5306352463 0 193.618770757)
(-39.2574409335 0 186.58357673)
(-43.4314077862 0 178.939281273)
(-47.0313738636 0 170.797893362)
(-50.0363643494 0 162.278578484)
(-52.4458934339 0 153.500625831)
(-54.2830941992 0 144.595225118)
(-55.5941188804 0 135.706130131)
(-56.4597461181 0 126.984997503)
(-56.9702856843 0 118.583738766)
(-57.2315192013 0 110.625658831)
(-57.3154056161 0 103.193025954)
(-57.2808396635 0 96.3022279374)
(-57.1343311211 0 89.9288751786)
(-56.8911387184 0 84.0129703713)
(-56.5388419967 0 78.502648457)
(-56.1305988839 0 73.3870496232)
(-58.2525436437 0 71.7882652284)
(-4.98864243514 0 219.669711943)
(-11.2835473614 0 218.361289165)
(-17.9530522685 0 215.235075553)
(-24.2661425304 0 210.93106875)
(-30.1927786417 0 205.57217497)
(-35.642814584 0 199.344555805)
(-40.5999186755 0 192.362846972)
(-45.0134702173 0 184.754617072)
(-48.8597155695 0 176.62650626)
(-52.1132788796 0 168.094150772)
(-54.7683942034 0 159.275601691)
(-56.8417973404 0 150.303150546)
(-58.3732263058 0 141.323603431)
(-59.4369194397 0 132.493064207)
(-60.1180319294 0 123.967756486)
(-60.5179077474 0 115.874944744)
(-60.7074323809 0 108.299421105)
(-60.7459452139 0 101.261052671)
(-60.645613584 0 94.7384531891)
(-60.4260199678 0 88.6769555515)
(-60.083526728 0 83.0269633574)
(-59.6763791698 0 77.7867600021)
(-62.0626812817 0 76.3988876094)
(-5.11429528338 0 225.320065402)
(-11.5741550951 0 224.03554949)
(-18.4302048022 0 220.962475245)
(-24.9386933081 0 216.726469532)
(-31.0728106799 0 211.44355949)
(-36.7427363975 0 205.290936556)
(-41.9332249352 0 198.375384068)
(-46.5922906424 0 190.817138675)
(-50.6939325532 0 182.716730976)
(-54.208528568 0 174.18519942)
(-57.1247962427 0 165.338033349)
(-59.4523821973 0 156.30720996)
(-61.2234751981 0 147.241314348)
(-62.5043021498 0 138.300111136)
(-63.3734150725 0 129.644059725)
(-63.9265749178 0 121.405201598)
(-64.2331322054 0 113.672325394)
(-64.3528831448 0 106.470554914)
(-64.3041921387 0 99.7829533513)
(-64.1112697825 0 93.5611090359)
(-63.780001009 0 87.7579930435)
(-63.3738669127 0 82.381394721)
(-66.0421954553 0 81.2164433141)
(-5.23619116063 0 231.157739962)
(-11.8568543988 0 229.899919861)
(-18.8949761815 0 226.885034919)
(-25.595409419 0 222.724265387)
(-31.9346684153 0 217.526870251)
(-37.8239421899 0 211.460991891)
(-43.2495144606 0 204.625429674)
(-48.1586764047 0 197.132669564)
(-52.5236595075 0 189.076441518)
(-56.3109460206 0 180.562113646)
(-59.5037239904 0 171.701201446)
(-62.1040676878 0 162.623751468)
(-64.1356016066 0 153.478550882)
(-65.6550367662 0 144.427871633)
(-66.7326570427 0 135.63600926)
(-67.4571223483 0 127.240405734)
(-67.8953602836 0 119.335326114)
(-68.1072606677 0 111.95310348)
(-68.1177370758 0 105.082991606)
(-67.9559021865 0 98.6840525655)
(-67.6380770504 0 92.7123795547)
(-67.2332334416 0 87.185761073)
(-70.2029247692 0 86.2559621291)
(-5.35359235279 0 237.183250629)
(-12.1299930679 0 235.954992834)
(-19.3446030937 0 233.003491522)
(-26.2323325506 0 228.925456243)
(-32.7730603363 0 223.823555448)
(-38.8796829394 0 217.856875673)
(-44.5404701139 0 211.116193687)
(-49.7027083509 0 203.705924892)
(-54.3374710817 0 195.712398333)
(-58.4079024137 0 187.23428833)
(-61.8919114721 0 178.377692575)
(-64.7838000128 0 169.268948453)
(-67.0978333386 0 160.055159186)
(-68.8797684148 0 150.899517807)
(-70.1897965781 0 141.969297132)
(-71.1075622424 0 133.407603451)
(-71.6961449227 0 125.315527861)
(-72.0146337103 0 117.734687897)
(-72.0945184167 0 110.66261697)
(-71.96998649 0 104.067478974)
(-71.6688919512 0 97.9094245006)
(-71.2660939031 0 92.2169357518)
(-74.5584222438 0 91.5346911607)
(-5.46576273689 0 243.396537279)
(-12.3919178233 0 242.200756689)
(-19.7763059957 0 239.317915676)
(-26.8454529559 0 235.330286132)
(-33.5825791603 0 230.334190995)
(-39.9029847947 0 224.479731125)
(-45.7973782519 0 217.849726429)
(-51.213814929 0 210.540324955)
(-56.1229327584 0 202.629986715)
(-60.4852996 0 194.209778466)
(-64.2740872739 0 185.378977762)
(-67.4759789714 0 176.258341287)
(-70.0954236776 0 166.991125786)
(-72.1659934524 0 157.739382465)
(-73.7359172907 0 148.671913518)
(-74.8735432624 0 139.937182943)
(-75.6360469746 0 131.644113258)
(-76.0801012331 0 123.845674302)
(-76.2432617491 0 116.550128436)
(-76.1647183259 0 109.736910763)
(-75.885113038 0 103.371725635)
(-75.4857745104 0 97.4947715964)
(-79.1242864342 0 97.0725448326)
(-5.57197668679 0 249.796956281)
(-12.640992815 0 248.636583142)
(-20.1873197452 0 245.82769213)
(-27.430754108 0 241.938212725)
(-34.3577636485 0 237.058432667)
(-40.8867301223 0 231.329615345)
(-47.0112283994 0 224.826800146)
(-52.6808831766 0 217.637812875)
(-57.8667041075 0 209.832946229)
(-62.527628933 0 201.494918615)
(-66.6329321983 0 192.714915596)
(-70.1622431169 0 183.606249596)
(-73.1101966189 0 174.305972517)
(-75.4973372281 0 164.972466198)
(-77.3582036947 0 155.773912257)
(-78.7473159164 0 146.863023116)
(-79.7132229141 0 138.356912208)
(-80.3076414804 0 130.321709112)
(-80.572843908 0 122.77913592)
(-80.5524435183 0 115.722727237)
(-80.3011794623 0 109.126045572)
(-79.9076523403 0 103.042574296)
(-83.9185872236 0 102.892689764)
(-5.67152922192 0 256.383279277)
(-12.8756202788 0 255.261222014)
(-20.574927529 0 252.531507818)
(-27.9842624829 0 248.747886224)
(-35.0931688806 0 243.994980034)
(-41.8237528151 0 238.40543831)
(-48.1728368301 0 232.046806778)
(-54.0924085188 0 224.998686932)
(-59.5547014749 0 217.323105376)
(-64.5181136077 0 209.093924016)
(-68.9491399882 0 200.393192168)
(-72.8213586309 0 191.325053633)
(-76.1201599134 0 182.017939095)
(-78.852809282 0 172.623654381)
(-81.0388363179 0 163.306868991)
(-82.716390141 0 154.222401872)
(-83.9220828191 0 145.494886516)
(-84.6990493689 0 137.204748105)
(-85.0917047456 0 129.389925554)
(-85.1465684073 0 122.06157533)
(-84.9335773137 0 115.204535904)
(-84.5496068663 0 108.888051404)
(-88.9624475321 0 109.02235096)
(-5.76374756948 0 263.153700634)
(-13.0942632602 0 262.07280402)
(-20.9364975205 0 259.427348692)
(-28.502101362 0 255.757139178)
(-35.7834432948 0 251.141554703)
(-42.7069456581 0 245.704920638)
(-49.272991802 0 239.507679226)
(-55.4366824465 0 232.621459377)
(-61.1723235952 0 225.100139398)
(-66.4389478449 0 217.008497205)
(-71.2016120824 0 208.41872373)
(-75.429267007 0 199.424360267)
(-79.0992620664 0 190.142936996)
(-82.206120916 0 180.716582994)
(-84.7537828774 0 171.302896118)
(-86.761864909 0 162.055479124)
(-88.2514216402 0 153.104361096)
(-89.2522730078 0 144.544117653)
(-89.806762929 0 136.43116121)
(-89.9612144436 0 128.798304276)
(-89.8011039957 0 121.646483981)
(-89.4325955206 0 115.064642311)
(-94.2807859459 0 115.493861946)
(-5.84800451801 0 270.105854742)
(-13.2954704044 0 269.068852183)
(-21.2695216048 0 266.512505651)
(-28.9805472326 0 262.962987967)
(-36.4234101751 0 258.494894527)
(-43.5293763713 0 253.224573594)
(-50.3026160474 0 247.205842922)
(-56.7020135447 0 240.502754199)
(-62.7047382112 0 233.161372357)
(-68.2716397209 0 225.23747244)
(-73.3678123476 0 216.793064362)
(-77.95934995 0 207.91009625)
(-82.0173939027 0 198.693294227)
(-85.5251956797 0 189.272108431)
(-88.4716095545 0 179.793081218)
(-90.8564797792 0 170.404119679)
(-92.6819242184 0 161.236713417)
(-93.9588896974 0 152.397403878)
(-94.7215018299 0 143.961910184)
(-95.0103570601 0 135.988629672)
(-94.9250501043 0 128.500924327)
(-94.581482044 0 121.613589813)
(-99.903492786 0 122.346326645)
(-5.9237343271 0 277.236845771)
(-13.4779030772 0 276.246303104)
(-21.5716556011 0 273.783590157)
(-29.4160873139 0 270.361646495)
(-37.0081509783 0 266.050764673)
(-44.284408149 0 260.95970329)
(-51.2529402939 0 255.136202187)
(-57.8769735859 0 248.6372535)
(-64.1372210586 0 241.501642524)
(-69.9974542347 0 233.776531561)
(-75.4242958212 0 225.513870373)
(-80.3829629738 0 216.783593667)
(-84.8407463349 0 207.676345646)
(-88.7720549946 0 198.306376931)
(-92.1525311135 0 188.805211564)
(-94.962551747 0 179.309738914)
(-97.1830261325 0 169.947056284)
(-98.8004237054 0 160.83068163)
(-99.8326938495 0 152.053711351)
(-100.305899632 0 143.702590103)
(-100.328944374 0 135.830398003)
(-100.025934886 0 128.586900451)
(-105.86673233 0 129.62758759)
(-5.99045276046 0 284.543293033)
(-13.6403656121 0 283.601539621)
(-21.8407606422 0 281.236561286)
(-29.8054768004 0 277.948555134)
(-37.5330877899 0 273.803990471)
(-44.9658200499 0 268.904446867)
(-52.1156802122 0 263.292173793)
(-58.950657119 0 257.017713035)
(-65.4555316617 0 250.113265925)
(-71.5979406798 0 242.618049989)
(-77.3474070194 0 234.57451565)
(-82.6702701285 0 226.040804948)
(-87.5326333945 0 217.093038702)
(-91.9033045372 0 207.828647006)