/*--------------------------------*- C++ -*----------------------------------*\
| =========                 |                                                 |
| \\      /  F ield         | OpenFOAM: The Open Source CFD Toolbox           |
|  \\    /   O peration     | Version:  2112                                  |
|   \\  /    A nd           | Website:  www.openfoam.com                      |
|    \\/     M anipulation  |                                                 |
\*---------------------------------------------------------------------------*/
FoamFile
{
    version     2.0;
    format      ascii;
    arch        "LSB;label=64;scalar=64";
    class       volVectorField;
    location    "0.0051";
    object      U.particles;
}
// * * * * * * * * * * * * * * * * * * * * * * * * * * * * * * * * * * * * * //

dimensions      [0 1 -1 0 0 0 0];

internalField   nonuniform List<vector> 
5589
(
(-2.37749147469 0 121.858879015)
(-5.31767003552 0 120.409030493)
(-8.2785492266 0 116.664452854)
(-10.8400528999 0 111.626083218)
(-12.9962509394 0 105.521635373)
(-14.6996661791 0 98.7577932041)
(-15.9603577745 0 91.5736464293)
(-16.8084809357 0 84.2156492767)
(-17.289522255 0 76.8602803762)
(-17.4492335172 0 69.6534930285)
(-17.3334308451 0 62.6961117469)
(-16.9755822778 0 56.0536628283)
(-16.4052990414 0 49.7566971894)
(-15.6086392735 0 43.7989646485)
(-14.564923238 0 38.1426186059)
(-13.2007004683 0 32.7178102512)
(-11.4824507609 0 27.4381282594)
(-9.26348391974 0 22.195472841)
(-6.60786401743 0 16.9294370813)
(-3.49795172467 0 11.6318677578)
(-0.44639344828 0 6.42499651321)
(2.33248718695 0 1.44690543941)
(3.72319971056 0 -2.97332813905)
(-2.36042390228 0 123.445180181)
(-5.28872261249 0 122.040927694)
(-8.23432137454 0 118.434666362)
(-10.7940121241 0 113.563616236)
(-12.9557386611 0 107.646706911)
(-14.6791363721 0 101.060060515)
(-15.9786872409 0 94.0240632633)
(-16.8820028935 0 86.7649465337)
(-17.4300783922 0 79.4490582426)
(-17.6635561163 0 72.2153990056)
(-17.6190181346 0 65.1612918099)
(-17.3158571502 0 58.3523878456)
(-16.7596261435 0 51.8213854548)
(-15.9142297907 0 45.5702395756)
(-14.7319884173 0 39.5720620218)
(-13.1301829081 0 33.7823423248)
(-11.0609125361 0 28.14664128)
(-8.51455431372 0 22.6534752832)
(-5.67573203908 0 17.3411264361)
(-2.97057029398 0 12.4290663194)
(-1.00967229375 0 8.16372149718)
(-0.478784758819 0 4.9297825831)
(-0.744802674623 0 2.02581927708)
(-2.36933234784 0 126.02845097)
(-5.31350032157 0 124.610565053)
(-8.27336731818 0 120.986076371)
(-10.8575610391 0 116.085542729)
(-13.0474563271 0 110.133501369)
(-14.8057935694 0 103.496414214)
(-16.1471192741 0 96.4024996214)
(-17.0956721882 0 89.0824043175)
(-17.6871681146 0 81.7073328079)
(-17.9563468376 0 74.4192257864)
(-17.932453526 0 67.3157657396)
(-17.628451326 0 60.4598831121)
(-17.0413470311 0 53.873919573)
(-16.1367434511 0 47.5464667716)
(-14.8752650985 0 41.435465049)
(-13.2064572832 0 35.4879829086)
(-11.1336780266 0 29.652409877)
(-8.73977256839 0 23.9439422216)
(-6.30289632729 0 18.471102694)
(-4.20305931109 0 13.4582871297)
(-2.78165604928 0 9.10498114864)
(-1.79634317465 0 5.27979157389)
(0.0762791024539 0 0.847903871837)
(-2.38979003731 0 128.318749111)
(-5.36220506667 0 126.898990439)
(-8.35046907484 0 123.28436726)
(-10.9705462901 0 118.395556681)
(-13.1975852095 0 112.461055895)
(-14.9976181249 0 105.837509075)
(-16.3850526051 0 98.7537415876)
(-17.3818908675 0 91.4361517555)
(-18.0204201208 0 84.0519049477)
(-18.3306436852 0 76.7370045567)
(-18.3352223212 0 69.5816813486)
(-18.0398446121 0 62.6408696288)
(-17.4312584808 0 55.9286965893)
(-16.4727100431 0 49.4312543757)
(-15.1256353217 0 43.111801548)
(-13.3641230153 0 36.9411279694)
(-11.2302750568 0 30.9155206257)
(-8.89779217908 0 25.1312838859)
(-6.67783607602 0 19.7633920224)
(-4.9441850838 0 15.0568300367)
(-3.81621414004 0 11.0743541295)
(-3.13135332748 0 7.7168835679)
(-2.44035489156 0 4.46667269486)
(-2.42087408589 0 130.687533197)
(-5.43391052861 0 129.266770457)
(-8.46494708099 0 125.663297453)
(-11.1339013433 0 120.787302077)
(-13.4101743668 0 114.868615613)
(-15.2621803517 0 108.254149374)
(-16.7031740708 0 101.172344203)
(-17.7522534542 0 93.846150382)
(-18.4377618225 0 86.4405965535)
(-18.7845217269 0 79.0888949464)
(-18.8091468335 0 71.8778389112)
(-18.5125538167 0 64.8583648399)
(-17.8783490002 0 58.0403349383)
(-16.8781152934 0 51.4089556754)
(-15.4904538985 0 44.9321992463)
(-13.7299275801 0 38.5970741519)
(-11.6902447535 0 32.4318933715)
(-9.59304031579 0 26.5640158656)
(-7.72406313437 0 21.17551745)
(-6.31673852088 0 16.4367251874)
(-5.31377664027 0 12.3271506285)
(-4.46599830356 0 8.640674548)
(-3.15687321395 0 4.7881983571)
(-2.46224193 0 133.10073604)
(-5.52806268166 0 131.678764855)
(-8.61564630518 0 128.085687801)
(-11.345503745 0 123.222344458)
(-13.6818365221 0 117.319228111)
(-15.5945078561 0 110.715023903)
(-17.0951702847 0 103.637145054)
(-18.1999543213 0 96.3048189232)
(-18.9336528197 0 88.879996354)
(-19.3167724672 0 81.4917934267)
(-19.3613135551 0 74.2221754597)
(-19.0652158166 0 67.1171960504)
(-18.4113863731 0 60.1838310908)
(-17.3800198003 0 53.4105152469)
(-15.9645585981 0 46.7782107902)
(-14.2111744619 0 40.3017203304)
(-12.2451791881 0 34.051368567)
(-10.3079042533 0 28.1900904647)
(-8.64069168194 0 22.8988888504)
(-7.40915455261 0 18.3013825603)
(-6.51337102205 0 14.324520532)
(-5.80962247935 0 10.7862091934)
(-4.9633567844 0 7.28647332074)
(-2.51305137161 0 135.565144975)
(-5.64305465124 0 134.142333336)
(-8.80001198169 0 130.560481993)
(-11.6019768263 0 125.711264021)
(-14.0086418331 0 119.824820976)
(-15.9904188826 0 113.232320554)
(-17.5571065353 0 106.159126529)
(-18.7217477932 0 98.8204114958)
(-19.5057577491 0 91.3748119381)
(-19.92592089 0 83.9476488174)
(-19.9908866901 0 76.6171233885)
(-19.6978362043 0 69.4263565802)
(-19.0329159731 0 62.3824563536)
(-17.9891802217 0 55.4796486729)
(-16.5800313758 0 48.7129606794)
(-14.8837276842 0 42.1197921833)
(-13.0491068086 0 35.7960303308)
(-11.3132194975 0 29.909191146)
(-9.85885075306 0 24.6136365833)
(-8.77593159733 0 19.9758692153)
(-7.91948592733 0 15.8997758907)
(-7.16126015494 0 12.2045294486)
(-6.16465797218 0 8.56467934156)
(-2.57263398974 0 138.091898913)
(-5.7775671534 0 136.668414059)
(-9.01592637661 0 133.098212745)
(-11.9005399715 0 128.263812961)
(-14.3873182346 0 122.394163009)
(-16.4463400435 0 115.813572925)
(-18.085413287 0 108.744663257)
(-19.3144877318 0 101.398465613)
(-20.1519233166 0 93.9302274424)
(-20.6115312152 0 86.461690559)
(-20.6998787218 0 79.0679198018)
(-20.4150335532 0 71.7903738856)
(-19.7480971746 0 64.6385388255)
(-18.7047915036 0 57.6151368545)
(-17.3156997483 0 50.7324515399)
(-15.6818170368 0 44.0516729095)
(-13.9608031989 0 37.6917153637)
(-12.3749799569 0 31.821614588)
(-11.061692373 0 26.5728183105)
(-10.0806245961 0 21.9748511387)
(-9.29625193809 0 17.9219022255)
(-8.6248085629 0 14.2401709308)
(-7.82825889615 0 10.6859009725)
(-2.64036621216 0 140.68968195)
(-5.93031623586 0 139.265624043)
(-9.2613183815 0 135.707358379)
(-12.2384972972 0 130.888164787)
(-14.8147138036 0 125.035098115)
(-16.9589142241 0 118.466124356)
(-18.6768678718 0 111.400565004)
(-19.9755019289 0 104.045277647)
(-20.8704826231 0 96.5521667493)
(-21.3733543632 0 89.0398289343)
(-21.4897800104 0 81.5811203643)
(-21.2202965012 0 74.2173390982)
(-20.56275463 0 66.9622294089)
(-19.5363992143 0 59.8281532004)
(-18.1885977629 0 52.8437991218)
(-16.6382089036 0 46.088181862)
(-15.0443563967 0 39.6917287506)
(-13.6083027828 0 33.8120632815)
(-12.4264074074 0 28.5546138161)
(-11.53084634 0 23.9191645795)
(-10.7826670398 0 19.8004568285)
(-10.111545938 0 16.0370772618)
(-9.33173552207 0 12.4699049536)
(-2.7156503924 0 143.366897331)
(-6.10004826414 0 141.942345437)
(-9.53418311275 0 138.396224883)
(-12.6132978029 0 133.592413278)
(-15.2879028394 0 127.755478819)
(-17.5251158995 0 121.197415708)
(-19.3286748041 0 114.133840249)
(-20.7025877198 0 106.767489632)
(-21.6601921125 0 99.2470826864)
(-22.2113870659 0 91.6886082008)
(-22.3618696128 0 84.1636795711)
(-22.1156548932 0 76.7148394139)
(-21.4779111065 0 69.3617134253)
(-20.480347559 0 62.1274361974)
(-19.1838752879 0 55.0570171203)
(-17.7183732814 0 48.2447437527)
(-16.2382524916 0 41.8286709823)
(-14.9242534651 0 35.9541478485)
(-13.8455532488 0 30.7062849662)
(-13.0234771651 0 26.0633123436)
(-12.3293223347 0 21.9209706461)
(-11.7087040866 0 18.1224409926)
(-11.0448408444 0 14.5850004848)
(-2.79792405731 0 146.131556405)
(-6.28557286557 0 144.706590621)
(-9.83263207698 0 141.172775729)
(-13.0225838761 0 136.384378058)
(-15.8042219044 0 130.562983734)
(-18.1422518964 0 124.014866929)
(-20.0384235101 0 116.951660176)
(-21.4939271854 0 109.572098997)
(-22.5201114759 0 102.021947275)
(-23.1257655314 0 94.4151803069)
(-23.3174036863 0 86.8231238977)
(-23.1033037777 0 79.2907649174)
(-22.4963380302 0 71.8446388679)
(-21.5398903527 0 64.5186762814)
(-20.3062101064 0 57.372253898)
(-18.9320326332 0 50.5101665467)
(-17.5642580411 0 44.0721136489)
(-16.3642356488 0 38.188324535)
(-15.379147702 0 32.9258148641)
(-14.6202298244 0 28.2472432525)
(-13.963113228 0 24.0526733439)
(-13.3619947797 0 20.194652268)
(-12.7714923452 0 16.6793253843)
(-2.88666419928 0 148.991267395)
(-6.4857780742 0 147.565996953)
(-10.1549133829 0 144.044648403)
(-13.4641992143 0 139.27164166)
(-16.3612619416 0 133.465166222)
(-18.8079229707 0 126.925923799)
(-20.8040089982 0 119.861380603)
(-22.3479669788 0 112.466433967)
(-23.4494441937 0 104.884173425)
(-24.1165353077 0 97.227178743)
(-24.3571263342 0 89.5674082043)
(-24.1841361345 0 81.9533458226)
(-23.6179358841 0 74.4192213329)
(-22.7121327246 0 67.0096870776)
(-21.5475887372 0 59.7970020853)
(-20.2641717545 0 52.8936678884)
(-19.0000541911 0 46.4386793603)
(-17.9001934668 0 40.5481080934)
(-16.996829021 0 35.274244303)
(-16.2958706694 0 30.5674974185)
(-15.6798585543 0 26.3307951766)
(-15.1110655649 0 22.4226407747)
(-14.6208250478 0 18.9396039197)
(-2.98138757312 0 151.953282704)
(-6.6996320479 0 150.527872339)
(-10.4994093879 0 147.019200419)
(-13.9361675701 0 142.261589567)
(-16.9568270883 0 136.469481474)
(-19.5199548558 0 129.938067037)
(-21.6235322734 0 122.870529517)
(-23.2633026263 0 115.4581155)
(-24.4474409147 0 107.841547092)
(-25.1836529256 0 100.132611527)
(-25.4815783236 0 92.4047270799)
(-25.3589272685 0 84.7106952661)
(-24.8432072369 0 77.0928160132)
(-23.9969349603 0 69.6058724664)
(-22.907552799 0 62.3330052206)
(-21.7157952936 0 55.3914503566)
(-20.5510818843 0 48.9170776746)
(-19.5441508676 0 43.0122234887)
(-18.7153889737 0 37.7165971369)
(-18.0657073002 0 32.9715625187)
(-17.4830431118 0 28.6839010856)
(-16.936366282 0 24.7200454992)
(-16.5422818871 0 21.2777078506)
(-3.08164570162 0 155.024534918)
(-6.92617132904 0 153.599228304)
(-10.8646134504 0 150.103539597)
(-14.4366483834 0 145.36143313)
(-17.5888710481 0 139.583298669)
(-20.2763146494 0 133.058809257)
(-22.4951992498 0 125.986787645)
(-24.2385705856 0 118.555021578)
(-25.5132946618 0 110.902179924)
(-26.3268746368 0 103.139825069)
(-26.6908996482 0 95.3435657846)
(-26.627768961 0 87.5711696142)
(-26.1715307096 0 79.8731845976)
(-25.3922102974 0 72.3138932989)
(-24.3820263459 0 64.9856843455)
(-23.2809811525 0 58.0086427273)
(-22.2102960295 0 51.5144983762)
(-21.2887580609 0 45.5931073231)
(-20.5279484831 0 40.2733804928)
(-19.9253175907 0 35.4894441041)
(-19.3746505027 0 31.1512099518)
(-18.8513664073 0 27.1323275414)
(-18.5637779704 0 23.7389511785)
(-3.1870156862 0 158.211665562)
(-7.16448008864 0 156.78680528)
(-11.249094015 0 153.304544966)
(-14.9638818321 0 148.578222385)
(-18.2554265504 0 142.813904081)
(-21.075028517 0 136.29568413)
(-23.4172332707 0 129.217964193)
(-25.2723674748 0 121.765251253)
(-26.6460856049 0 114.074462025)
(-27.5457618521 0 106.257443099)
(-27.9849743994 0 98.3926053624)
(-27.9905421304 0 90.5431476376)
(-27.6023889028 0 82.7678310522)
(-26.8968040213 0 75.1396778463)
(-25.9694553673 0 67.7587527967)
(-24.9587074363 0 60.7464288031)
(-23.9783453322 0 54.2295011163)
(-23.1368246405 0 48.2863638306)
(-22.4386333874 0 42.9364956154)
(-21.8783541783 0 38.1086165502)
(-21.3554856017 0 33.7160255535)
(-20.8516774493 0 29.6402535623)
(-20.6756657752 0 26.3061329806)
(-3.29708909856 0 161.521045074)
(-7.41366606679 0 160.09708892)
(-11.6514550535 0 156.628877941)
(-15.5161341898 0 151.918849301)
(-18.9545390407 0 146.168496416)
(-21.9141088928 0 139.656230656)
(-24.3878024735 0 132.571971825)
(-26.3631844662 0 125.097094356)
(-27.8447292097 0 117.367032428)
(-28.8396456448 0 109.494352874)
(-29.3633943131 0 101.560762692)
(-29.4467991933 0 93.6352150084)
(-29.1349345616 0 85.7845402913)
(-28.5092149566 0 78.0897904749)
(-27.6677289357 0 70.6574382405)
(-26.7466781508 0 63.6091433044)
(-25.8532209708 0 57.0664532606)
(-25.0868822267 0 51.0973734049)
(-24.4465857316 0 45.7130443013)
(-23.9249509289 0 40.8380978357)
(-23.4273841112 0 36.3890121697)
(-22.9416655991 0 32.2551880692)
(-22.885009519 0 28.9898729955)
(-3.41146096743 0 164.958782246)
(-7.67283753174 0 163.536316276)
(-12.0702991155 0 160.082983652)
(-16.0916497616 0 155.390042217)
(-19.684209873 0 149.654175367)
(-22.7914935398 0 143.147973588)
(-25.4049604576 0 136.056800788)
(-27.5093548877 0 128.559003051)
(-29.1079389707 0 120.788752406)
(-30.2076191258 0 112.859685589)
(-30.8255063894 0 104.857179869)
(-30.9959130179 0 96.8561403429)
(-30.7683307652 0 88.9312423783)
(-30.228309603 0 81.1709063643)
(-29.4756112298 0 73.6869526985)
(-28.6440237107 0 66.600622834)
(-27.8348236715 0 60.0280601148)
(-27.1397026402 0 54.0278349037)
(-26.5531809476 0 48.6037090057)
(-26.0666466664 0 43.6774790416)
(-25.5915394231 0 39.1688466248)
(-25.1216792481 0 34.975288814)
(-25.1917358264 0 31.7891694333)
(-3.52972019322 0 168.530724605)
(-7.94108380283 0 167.110473572)
(-12.5041963542 0 163.673084537)
(-16.688611866 0 158.998353694)
(-20.4423501256 0 153.277925017)
(-23.7049951859 0 146.778400938)
(-26.4665956801 0 139.680492379)
(-28.7090067036 0 132.159565462)
(-30.4341872413 0 124.348685727)
(-31.648513143 0 116.362813829)
(-32.370405059 0 108.291255945)
(-32.6370665191 0 100.214967662)
(-32.5016735906 0 92.2162118545)
(-32.0530403471 0 84.3902153493)
(-31.3920401805 0 76.8533251668)
(-30.6499456425 0 69.7259467369)
(-29.9228220189 0 63.1188398546)
(-29.2954872971 0 57.0820519797)
(-28.7591283048 0 51.6128280533)
(-28.3046628276 0 46.6311770478)
(-27.8497074012 0 42.0599514085)
(-27.3940135724 0 37.8047497187)
(-27.5988152979 0 34.708006964)
(-3.65144194579 0 172.242450898)
(-8.21746014151 0 170.825286718)
(-12.9516602679 0 167.405167323)
(-17.3051123957 0 162.750142579)
(-21.2267434194 0 157.046592125)
(-24.6522588289 0 150.554937652)
(-27.570385629 0 143.451109908)
(-29.9600163244 0 135.907478258)
(-31.8216643634 0 128.056079602)
(-33.1608693524 0 120.013349291)
(-33.9969287292 0 111.872668433)
(-34.3692795422 0 103.721058268)
(-34.3340554575 0 95.648100113)
(-33.9825628807 0 87.7553655313)
(-33.4163570125 0 80.1631045249)
(-32.764178314 0 72.9906646972)
(-32.1174762323 0 66.3435485726)
(-31.5550487567 0 60.2641519362)
(-31.0657207345 0 54.7440235703)
(-30.6406298659 0 49.7023331017)
(-30.2036872318 0 45.0650368837)
(-29.7604551609 0 40.7459046583)
(-30.1083485542 0 37.7489233053)
(-3.77618207032 0 176.099257786)
(-8.5009767965 0 174.686206495)
(-13.4111295539 0 171.284965031)
(-17.9391283963 0 166.651551416)
(-22.0350155162 0 160.966859652)
(-25.6307240943 0 154.484914924)
(-28.7137530335 0 147.376705973)
(-31.2599609416 0 139.811516773)
(-33.2682321669 0 131.920345444)
(-34.742901465 0 123.821143713)
(-35.7036331423 0 115.611403472)
(-36.1913896841 0 107.384155093)
(-36.2645347101 0 99.2360336159)
(-36.016161258 0 91.2745975859)
(-35.5481517691 0 83.6235581085)
(-34.9867368117 0 76.401151159)
(-34.419291977 0 69.7078543941)
(-33.9193979474 0 63.5792742567)
(-33.4744453563 0 58.0020559612)
(-33.0764250957 0 52.8953560182)
(-32.6556483843 0 48.1881470513)
(-32.223351125 0 43.8023773801)
(-32.723127035 0 40.9155055761)
(-3.90347321845 0 180.106142317)
(-8.79059145608 0 178.698389718)
(-13.8809548488 0 175.317934932)
(-18.5885038328 0 170.70847961)
(-22.8646086486 0 165.045215335)
(-26.6375907849 0 158.575534233)
(-29.8938227322 0 151.465284465)
(-32.6060685349 0 143.88050045)
(-34.771371618 0 135.951036181)
(-36.3924465242 0 127.796287386)
(-37.4887512834 0 119.517782264)
(-38.1020213612 0 111.214436055)
(-38.2921103235 0 102.989680663)
(-38.1532262614 0 94.9567981599)
(-37.7872580537 0 87.2426760673)
(-37.3179604459 0 79.9645239378)
(-36.8291408175 0 73.2181256572)
(-36.3899329932 0 67.0331690237)
(-35.9871812844 0 61.3921744146)
(-35.6142931404 0 56.2150187591)
(-35.2080739487 0 51.4335828557)
(-34.785291442 0 46.97799923)
(-35.4461973961 0 44.2116345723)
(-4.03282232512 0 184.267781117)
(-9.08520425921 0 182.866677074)
(-14.3593891011 0 179.509232859)
(-19.2509350631 0 174.926552342)
(-23.7127591943 0 169.287914894)
(-27.6697866738 0 162.833825138)
(-31.1073788055 0 155.72475585)
(-33.9951653743 0 148.123251629)
(-36.3281240322 0 140.157817617)
(-38.1069044282 0 131.949102871)
(-39.3501351804 0 123.602484244)
(-40.0995304679 0 115.22256717)
(-40.4156664215 0 106.919326753)
(-40.3931960203 0 98.8115861201)
(-40.133691925 0 91.0292635814)
(-39.7584593923 0 83.6887550343)
(-39.348219836 0 76.8815861923)
(-38.968411046 0 70.6324225911)
(-38.606186095 0 64.9204290339)
(-38.2568621489 0 59.6668503964)
(-37.8638372898 0 54.8063456359)
(-37.4492659951 0 50.277233832)
(-38.2810477515 0 47.6417809092)
(-4.1637091224 0 188.5885075)
(-9.38365475581 0 187.195568683)
(-14.8445808104 0 183.863684621)
(-19.9239593436 0 179.311085702)
(-24.576478355 0 173.700940077)
(-28.7239377406 0 167.266596593)
(-32.3508226937 0 160.162884855)
(-35.4236218647 0 152.548545997)
(-37.9350264021 0 144.550431174)
(-39.8831659317 0 136.290130326)
(-41.2851804057 0 127.876562543)
(-42.1819284497 0 119.419749135)
(-42.6338987112 0 111.035944826)
(-42.7354894839 0 102.849393529)
(-42.587602209 0 94.9930200221)
(-42.3090942154 0 87.5827403025)
(-41.9780641511 0 80.7063685422)
(-41.6569860266 0 74.384483977)
(-41.334145221 0 68.5936632647)
(-41.0072010773 0 63.2570993421)
(-40.6262584535 0 58.3120865585)
(-40.2187327661 0 53.7051525367)
(-41.2316988388 0 51.2110597133)
(-4.29558547313 0 193.072287031)
(-9.68472041146 0 191.689197762)
(-15.334569681 0 188.385754801)
(-20.6049461203 0 183.867048187)
(-25.4525360131 0 178.289951495)
(-29.7963415181 0 171.880381364)
(-33.6201333594 0 164.787229507)
(-36.8872978087 0 157.1650527)
(-39.5880415032 0 149.138644922)
(-41.717529071 0 140.830100565)
(-43.2907322578 0 132.351448094)
(-44.3467832116 0 123.817755847)
(-44.9452167958 0 115.351264096)
(-45.1794189013 0 107.08155583)
(-45.1492035956 0 99.1446415846)
(-44.9709376791 0 91.6564093597)
(-44.7205364233 0 84.7016278108)
(-44.4582179508 0 78.2977789793)
(-44.174192995 0 72.4196257432)
(-43.868840058 0 66.9928373692)
(-43.4991106592 0 61.9571987655)
(-43.097562402 0 57.2674885313)
(-44.302686583 0 54.9252986287)
(-4.42787541366 0 197.722691945)
(-9.98711649357 0 196.351302791)
(-15.8272845999 0 193.07951329)
(-21.2910913793 0 188.599018815)
(-26.3374484396 0 183.060236442)
(-30.8829446325 0 176.681373456)
(-34.9108309218 0 169.605070739)
(-38.3814885732 0 161.981262314)
(-41.2824839765 0 153.932189826)
(-43.6056045886 0 145.579891652)
(-45.3629733187 0 137.038937756)
(-46.5910955282 0 128.428960644)
(-47.3476201937 0 119.877833922)
(-47.724079186 0 111.520406746)
(-47.8186929762 0 103.495937388)
(-47.745226506 0 95.9208523344)
(-47.5778129894 0 88.8776684475)
(-47.3750875823 0 82.381828064)
(-47.1299521509 0 76.4070756982)
(-46.8458401147 0 70.8820540067)
(-46.4867370308 0 65.7489029778)
(-46.0902478859 0 60.970720251)
(-47.4991811 0 58.7910393046)
(-4.5599758955 0 202.542874822)
(-10.2894973939 0 201.185198554)
(-16.3205441378 0 197.948599987)
(-21.9794155767 0 193.511142322)
(-27.2274707055 0 188.016652364)
(-31.9793260159 0 181.675358652)
(-36.2179456299 0 174.62333209)
(-39.9008742591 0 167.005401004)
(-43.0129444329 0 158.940678063)
(-45.5422118544 0 150.550464442)
(-47.4972926409 0 141.951160939)
(-48.91114919 0 133.266344966)
(-49.8385436075 0 124.629078967)
(-50.3682067035 0 116.179376906)
(-50.5961389422 0 108.059962042)
(-50.6332912395 0 100.388472528)
(-50.5523525115 0 93.2461019218)
(-50.4109950773 0 86.6473968805)
(-50.2055501188 0 80.5659212027)
(-49.9428115066 0 74.9337834221)
(-49.5940480349 0 69.6953706696)
(-49.2018417892 0 64.8222049358)
(-50.8270663819 0 62.8157801891)
(-4.69125828298 0 207.535542484)
(-10.5904595671 0 206.193747093)
(-16.8120599717 0 202.996188767)
(-22.6667659276 0 198.607082693)
(-28.1185951188 0 193.163566719)
(-33.0806872677 0 186.867639454)
(-37.5359944869 0 179.848489525)
(-41.4394746857 0 172.245329837)
(-44.7732146371 0 164.173500665)
(-47.521267995 0 155.752772352)
(-49.6881379131 0 147.100518363)
(-51.3023336641 0 138.343482244)
(-52.4146668557 0 129.61933899)
(-53.1099997837 0 121.073091407)
(-53.481335552 0 112.851162515)
(-53.6364576544 0 105.073165275)
(-53.6468474436 0 97.8200366478)
(-53.5697563178 0 91.1066789378)
(-53.4056528211 0 84.9073833954)
(-53.1649796118 0 79.1582427469)
(-52.826615737 0 73.8058292365)
(-52.438085088 0 68.8302365049)
(-54.292984238 0 67.007950458)
(-4.82107065767 0 212.702929868)
(-10.8885462118 0 211.379328365)
(-17.2994434728 0 208.224950704)
(-23.349823507 0 203.889975124)
(-29.006556476 0 198.504793992)
(-34.1818517325 0 192.262953839)
(-38.8589672337 0 185.2864718)
(-42.9906130986 0 177.708427854)
(-46.5562174171 0 169.639701379)
(-49.5356738285 0 161.197639987)
(-51.9288528425 0 152.499585064)
(-53.7589384425 0 143.6744874)
(-55.0716841409 0 134.863883552)
(-55.9468909326 0 126.217458681)
(-56.4736071338 0 117.885535915)
(-56.7559056155 0 109.990525367)
(-56.8641441562 0 102.614308512)
(-56.8555792579 0 95.7735248468)
(-56.735484887 0 89.4442099188)
(-56.5182340714 0 83.5670247518)
(-56.190741598 0 78.0907383491)
(-55.8054743847 0 73.0042100405)
(-57.9044623852 0 71.3771077774)
(-4.94874103159 0 218.046775473)
(-11.1822539533 0 216.7438123)
(-17.7802159242 0 213.637018349)
(-24.0251159491 0 209.362378424)
(-29.8868452803 0 204.043531748)
(-35.2772741333 0 197.865390867)
(-40.180325005 0 190.942551828)
(-44.5468924951 0 183.401460276)
(-48.3539468028 0 175.347825575)
(-51.5772028405 0 166.895606326)
(-54.2115049453 0 158.160969906)
(-56.2739209039 0 149.273920779)
(-57.8040289885 0 140.37888866)
(-58.8752608071 0 131.629738943)
(-59.5715496762 0 123.180791111)
(-59.9924704419 0 115.158082628)
(-60.2071210669 0 107.645757484)
(-60.2730182744 0 100.663725236)
(-60.2008466237 0 94.1909385736)
(-60.0091883525 0 88.1733280937)
(-59.6935381783 0 82.561981193)
(-59.311365432 0 77.3547830802)
(-61.6700289372 0 75.934079139)
(-5.07358151467 0 223.568298492)
(-11.4700416179 0 222.288532429)
(-18.251822506 0 219.233951483)
(-24.6890360299 0 215.02622855)
(-30.7547295839 0 209.782296807)
(-36.3610619223 0 203.67830382)
(-41.493013954 0 196.821231571)
(-46.1001890935 0 189.330430923)
(-50.1574240777 0 181.305743612)
(-53.6364005557 0 172.856728453)
(-56.5267110964 0 164.097122217)
(-58.8386518833 0 155.156632251)
(-60.6045525224 0 146.181357288)
(-61.8900831411 0 137.328574068)
(-62.7726902532 0 128.756500994)
(-63.346364362 0 120.595561864)
(-63.6785036041 0 112.933557442)
(-63.8268905161 0 105.795363826)
(-63.808118093 0 99.16423487)
(-63.6452478421 0 92.992256298)
(-63.3430384072 0 87.233118098)
(-62.9640887947 0 81.894076727)
(-65.5993526765 0 80.6911514775)
(-5.19489348193 0 229.268178741)
(-11.7503411881 0 228.01426229)
(-18.7116501871 0 225.016705694)
(-25.3378664059 0 220.882794972)
(-31.6052860459 0 215.722863666)
(-37.4270097317 0 209.704223696)
(-42.7894963593 0 202.926122685)
(-47.6416676361 0 195.500423194)
(-51.9566777712 0 187.520448329)
(-55.702504129 0 179.090343768)
(-58.8634718222 0 170.320078764)
(-61.4426480251 0 161.337529838)
(-63.4641573352 0 152.288961784)
(-64.9844918408 0 143.333953771)
(-66.0730440129 0 134.6342241)
(-66.8167896587 0 126.325156778)
(-67.2805868444 0 118.499603093)
(-67.522131218 0 111.189256466)
(-67.5642360263 0 104.383324484)
(-67.4346750649 0 98.0412042362)
(-67.1483121481 0 92.1197134869)
(-66.7731003591 0 86.6359492185)
(-69.7034273858 0 85.6623169391)
(-5.31197376004 0 235.146540336)
(-12.0215709514 0 233.921195605)
(-19.1570495036 0 230.985605028)
(-25.9678105281 0 226.932641462)
(-32.4334404628 0 221.866207334)
(-38.4686478389 0 215.944775918)
(-44.061801618 0 209.259826784)
(-49.1618230106 0 201.915432746)
(-53.7407556801 0 193.997831831)
(-57.7633950255 0 185.604789714)
(-61.2090294897 0 176.841143812)
(-64.0733056547 0 167.831258932)
(-66.3713958155 0 158.719780402)
(-68.1492662703 0 149.667083559)
(-69.4665475782 0 140.837561779)
(-70.4014077055 0 132.371795551)
(-71.0148245681 0 124.368951362)
(-71.3635533512 0 116.869493554)
(-71.476624925 0 109.870550417)
(-71.3866535885 0 103.340363156)
(-71.1196121374 0 97.2397581687)
(-70.7491605855 0 91.5963317912)
(-73.9947927295 0 90.8635748127)
(-5.42412183009 0 241.202939976)
(-12.2821507662 0 240.008931114)
(-19.5853600205 0 237.140319755)
(-26.5750294481 0 233.175592816)
(-33.2340175791 0 228.212452795)
(-39.4793049537 0 222.400603522)
(-45.3015987117 0 215.823819897)
(-50.6505524785 0 208.578197918)
(-55.4977769691 0 200.742446566)
(-59.8055985659 0 192.407086683)
(-63.5487708841 0 183.670499673)
(-66.7156586283 0 174.651774863)
(-69.3120511185 0 165.491901741)
(-71.3722393812 0 156.350109075)
(-72.9443509697 0 147.392100016)
(-74.09562142 0 138.763357452)
(-74.8812266998 0 130.57030136)
(-75.3554552358 0 122.864101195)
(-75.55304273 0 115.652094837)
(-75.5113325413 0 108.913394402)
(-75.2685448934 0 102.614235685)
(-74.9045652662 0 96.7936788652)
(-78.4878203671 0 96.3133244047)
(-5.53064804579 0 247.436360718)
(-12.5305193217 0 246.276462952)
(-19.9939391375 0 243.479850324)
(-27.1556839779 0 239.610709001)
(-34.0017995658 0 234.760833405)
(-40.4521849898 0 229.071300437)
(-46.5002908241 0 222.618346542)
(-52.0972615981 0 215.490035536)
(-57.215032224 0 207.75726033)
(-61.8143449506 0 199.502591902)
(-65.8661976821 0 190.816752575)
(-69.3521929758 0 181.811801946)
(-72.2687332098 0 172.622861157)
(-74.6376482123 0 163.405647435)
(-76.4939601769 0 154.325166182)
(-77.8916261303 0 145.530770617)
(-78.8774891518 0 137.136471574)
(-79.5009912336 0 129.20582432)
(-79.8012752211 0 121.758910813)
(-79.8198211063 0 114.788337367)
(-79.6082676806 0 108.267892303)
(-79.2534371653 0 102.249567711)
(-83.1990798797 0 102.032873355)
(-5.63088290143 0 253.845212464)
(-12.7651532624 0 252.722177653)
(-20.3801938106 0 250.002518669)
(-27.7059814481 0 246.236268355)
(-34.7315921282 0 241.509660697)
(-41.3804567334 0 235.955358797)
(-47.6491316071 0 229.642329721)
(-53.4910053195 0 222.650691565)
(-58.8791374612 0 215.043418232)
(-63.7737063301 0 206.894639836)
(-68.142991466 0 198.28642564)
(-71.9627583107 0 189.322179646)
(-75.2205417718 0 180.128891474)
(-77.9254713975 0 170.856058895)
(-80.0982437708 0 161.66530839)
(-81.7771913433 0 152.707887657)
(-82.9977625018 0 144.104788577)
(-83.8011811488 0 135.933007162)
(-84.2285675181 0 128.227912245)
(-84.3240709035 0 120.998849297)
(-84.1537058591 0 114.230316518)
(-83.8121100995 0 107.989535114)
(-88.1478350333 0 108.047133836)
(-5.72418745593 0 260.427340344)
(-12.9845880423 0 259.343858714)
(-20.7416146272 0 256.70596782)
(-28.222226005 0 253.04976117)
(-35.4182966441 0 248.45630777)
(-42.257354325 0 243.050134039)
(-48.7393609159 0 236.893303203)
(-54.8206631725 0 230.058217119)
(-60.4762447942 0 222.600027628)
(-65.6668212022 0 214.584190709)
(-70.3592000357 0 206.083423005)
(-74.5246241894 0 197.191111528)
(-78.1428634446 0 188.023976137)
(-81.2108317615 0 178.722411744)
(-83.7343581022 0 169.441380293)
(-85.73416071 0 160.330975956)
(-87.2309582395 0 151.517238442)
(-88.2533830819 0 143.090483923)
(-88.8406044163 0 135.10344307)
(-89.0365168586 0 127.585894492)
(-88.9217472405 0 120.537471799)
(-88.599613797 0 114.044245726)
(-93.3566732403 0 114.385525542)
(-5.8099651744 0 267.180041794)
(-13.1874404328 0 266.138699001)
(-21.0758115679 0 263.587169994)
(-28.7008711007 0 260.047894169)
(-36.0569861626 0 255.597207564)
(-43.0762854089 0 250.351830656)
(-49.7623559172 0 244.367371911)
(-56.0751442417 0 237.708880602)
(-61.9923076072 0 230.423984428)
(-67.4762114101 0 222.569515519)
(-72.4935668417 0 214.208502722)
(-77.0127316379 0 205.423356011)
(-81.00739107 0 196.318725253)
(-84.4635794483 0 187.02310505)
(-87.3727048961 0 177.681121935)
(-89.7367225778 0 168.437622242)
(-91.5585130441 0 159.420123943)
(-92.8490083463 0 150.730294432)
(-93.6397476825 0 142.439004997)
(-93.9692426792 0 134.600050006)
(-93.9313407761 0 127.233970522)
(-93.6383612016 0 120.451296816)
(-98.8524902569 0 121.083388577)
(-5.88767575104 0 274.100094529)
(-13.3724328272 0 273.103322165)
(-21.3805508935 0 270.64244383)
(-29.138572823 0 267.226606583)
(-36.6429829009 0 262.927867087)
(-43.8309431843 0 257.855510687)
(-50.7097919771 0 252.059204731)
(-57.2436144857 0 245.597124912)
(-63.4133923656 0 238.50985801)
(-69.1841882055 0 230.845947679)
(-74.5240148022 0 222.658804834)
(-79.4001832805 0 214.019417996)
(-83.7824608274 0 205.019127037)
(-87.6482142359 0 195.772153868)
(-90.9761153041 0 186.409127957)
(-93.7496029385 0 177.0647878)
(-95.9516114151 0 167.862834896)
(-97.5702330384 0 158.911798902)
(-98.622074252 0 150.298989884)
(-99.1321920834 0 142.104474706)
(-99.2031857962 0 134.376331347)
(-98.9548809964 0 127.257795832)
(-104.667578004 0 128.18366175)
(-5.95685206792 0 281.183797672)
(-13.5384198587 0 280.233814039)
(-21.6537927254 0 277.86748185)
(-29.532242697 0 274.58109973)
(-37.1719346915 0 270.44290082)
(-44.5154180628 0 265.555130277)
(-51.5738063846 0 259.96206875)
(-58.315735912 0 253.715585258)
(-64.7260229877 0 246.849862038)
(-70.7733327148 0 239.4057485)
(-76.4282792339 0 231.427511768)
(-81.6589977124 0 222.974855389)
(-86.4337980143 0 214.125317505)